<?xml version="1.0"?>
<VTKFile type="UnstructuredGrid" version="0.1" byte_order="LittleEndian" header_type="UInt32" compressor="vtkZLibDataCompressor">
  <UnstructuredGrid>
    <Piece NumberOfPoints="8" NumberOfCells="1">
      <PointData>
        <DataArray type="Int32" Name="libmesh_node_id" format="ascii" RangeMin="0" RangeMax="7">
          0 1 2 3 4 5
          6 7
        </DataArray>
        <DataArray type="Float64" Name="stress_zz" format="ascii" RangeMin="752.695439364458" RangeMax="752.695439364458">
          752.695439364458 752.695439364458 752.695439364458 752.695439364458 752.695439364458 752.695439364458
          752.695439364458 752.695439364458
        </DataArray>
        <DataArray type="Float64" Name="peeq" format="ascii" RangeMin="0.33002146896660317" RangeMax="0.33002146896660317">
          0.33002146896660317 0.33002146896660317 0.33002146896660317 0.33002146896660317 0.33002146896660317 0.33002146896660317
          0.33002146896660317 0.33002146896660317
        </DataArray>
        <DataArray type="Float64" Name="pe11" format="ascii" RangeMin="-0.16501073448330153" RangeMax="-0.16501073448330153">
          -0.16501073448330153 -0.16501073448330153 -0.16501073448330153 -0.16501073448330153 -0.16501073448330153 -0.16501073448330153
          -0.16501073448330153 -0.16501073448330153
        </DataArray>
        <DataArray type="Float64" Name="pe22" format="ascii" RangeMin="-0.1650107344833016" RangeMax="-0.1650107344833016">
          -0.1650107344833016 -0.1650107344833016 -0.1650107344833016 -0.1650107344833016 -0.1650107344833016 -0.1650107344833016
          -0.1650107344833016 -0.1650107344833016
        </DataArray>
        <DataArray type="Float64" Name="pe33" format="ascii" RangeMin="0.33002146896660317" RangeMax="0.33002146896660317">
          0.33002146896660317 0.33002146896660317 0.33002146896660317 0.33002146896660317 0.33002146896660317 0.33002146896660317
          0.33002146896660317 0.33002146896660317
        </DataArray>
        <DataArray type="Float64" Name="x_disp" format="ascii" RangeMin="-0.1533809417372773" RangeMax="2.3090455061931624e-16">
          0 -0.1533809417372773 -0.15338094173727676 2.3090455061931624e-16 -1.617319720495726e-16 -0.153380941737277
          -0.15338094173727668 1.1781686733396221e-16
        </DataArray>
        <DataArray type="Float64" Name="y_disp" format="ascii" RangeMin="-0.15338094173727745" RangeMax="0">
          0 0 -0.15338094173727745 -0.1533809417372768 -1.009809708129475e-16 -2.2499233321035604e-16
          -0.15338094173727734 -0.15338094173727676
        </DataArray>
        <DataArray type="Float64" Name="z_disp" format="ascii" RangeMin="0" RangeMax="0.4">
          0 0 0 0 0.4 0.4
          0.4 0.4
        </DataArray>
      </PointData>
      <CellData>
        <DataArray type="Int32" Name="libmesh_elem_id" format="ascii" RangeMin="0" RangeMax="0">
          0
        </DataArray>
        <DataArray type="Int32" Name="subdomain_id" format="ascii" RangeMin="0" RangeMax="0">
          0
        </DataArray>
        <DataArray type="Int32" Name="processor_id" format="ascii" RangeMin="0" RangeMax="0">
          0
        </DataArray>
      </CellData>
      <Points>
        <DataArray type="Float64" Name="Points" NumberOfComponents="3" format="ascii" RangeMin="0" RangeMax="1.7320508075688772">
          0 0 0 1 0 0
          1 1 0 0 1 0
          0 0 1 1 0 1
          1 1 1 0 1 1
          <InformationKey name="L2_NORM_RANGE" location="vtkDataArray" length="2">
            <Value index="0">
              0
            </Value>
            <Value index="1">
              1.7320508076
            </Value>
          </InformationKey>
        </DataArray>
      </Points>
      <Cells>
        <DataArray type="Int64" Name="connectivity" format="ascii" RangeMin="0" RangeMax="7">
          0 1 2 3 4 5
          6 7
        </DataArray>
        <DataArray type="Int64" Name="offsets" format="ascii" RangeMin="8" RangeMax="8">
          8
        </DataArray>
        <DataArray type="UInt8" Name="types" format="ascii" RangeMin="12" RangeMax="12">
          12
        </DataArray>
      </Cells>
    </Piece>
  </UnstructuredGrid>
</VTKFile>
