<?xml version="1.0"?>
<VTKFile type="UnstructuredGrid" version="0.1" byte_order="LittleEndian" header_type="UInt32" compressor="vtkZLibDataCompressor">
  <UnstructuredGrid>
    <Piece NumberOfPoints="8" NumberOfCells="1">
      <PointData>
        <DataArray type="Int32" Name="libmesh_node_id" format="ascii" RangeMin="0" RangeMax="7">
          0 1 2 3 4 5
          6 7
        </DataArray>
        <DataArray type="Float64" Name="stress_zz" format="ascii" RangeMin="786.7957020797757" RangeMax="786.7957020797757">
          786.7957020797757 786.7957020797757 786.7957020797757 786.7957020797757 786.7957020797757 786.7957020797757
          786.7957020797757 786.7957020797757
        </DataArray>
        <DataArray type="Float64" Name="peeq" format="ascii" RangeMin="0.39845674583894847" RangeMax="0.39845674583894847">
          0.39845674583894847 0.39845674583894847 0.39845674583894847 0.39845674583894847 0.39845674583894847 0.39845674583894847
          0.39845674583894847 0.39845674583894847
        </DataArray>
        <DataArray type="Float64" Name="pe11" format="ascii" RangeMin="-0.1992283729194742" RangeMax="-0.1992283729194742">
          -0.1992283729194742 -0.1992283729194742 -0.1992283729194742 -0.1992283729194742 -0.1992283729194742 -0.1992283729194742
          -0.1992283729194742 -0.1992283729194742
        </DataArray>
        <DataArray type="Float64" Name="pe22" format="ascii" RangeMin="-0.19922837291947432" RangeMax="-0.19922837291947432">
          -0.19922837291947432 -0.19922837291947432 -0.19922837291947432 -0.19922837291947432 -0.19922837291947432 -0.19922837291947432
          -0.19922837291947432 -0.19922837291947432
        </DataArray>
        <DataArray type="Float64" Name="pe33" format="ascii" RangeMin="0.3984567458389485" RangeMax="0.3984567458389485">
          0.3984567458389485 0.3984567458389485 0.3984567458389485 0.3984567458389485 0.3984567458389485 0.3984567458389485
          0.3984567458389485 0.3984567458389485
        </DataArray>
        <DataArray type="Float64" Name="x_disp" format="ascii" RangeMin="-0.18194645840442958" RangeMax="8.051543586743219e-16">
          0 -0.18194645840442958 -0.18194645840442952 8.051543586743219e-16 -3.9819523335188764e-17 -0.18194645840442952
          -0.1819464584044292 5.997139782941334e-16
        </DataArray>
        <DataArray type="Float64" Name="y_disp" format="ascii" RangeMin="-0.18194645840443036" RangeMax="0">
          0 0 -0.18194645840443036 -0.18194645840442963 -7.932882781002669e-18 -3.9164263779287695e-16
          -0.18194645840443027 -0.18194645840442955
        </DataArray>
        <DataArray type="Float64" Name="z_disp" format="ascii" RangeMin="0" RangeMax="0.5">
          0 0 0 0 0.5 0.5
          0.5 0.5
        </DataArray>
      </PointData>
      <CellData>
        <DataArray type="Int32" Name="libmesh_elem_id" format="ascii" RangeMin="0" RangeMax="0">
          0
        </DataArray>
        <DataArray type="Int32" Name="subdomain_id" format="ascii" RangeMin="0" RangeMax="0">
          0
        </DataArray>
        <DataArray type="Int32" Name="processor_id" format="ascii" RangeMin="0" RangeMax="0">
          0
        </DataArray>
      </CellData>
      <Points>
        <DataArray type="Float64" Name="Points" NumberOfComponents="3" format="ascii" RangeMin="0" RangeMax="1.7320508075688772">
          0 0 0 1 0 0
          1 1 0 0 1 0
          0 0 1 1 0 1
          1 1 1 0 1 1
          <InformationKey name="L2_NORM_RANGE" location="vtkDataArray" length="2">
            <Value index="0">
              0
            </Value>
            <Value index="1">
              1.7320508076
            </Value>
          </InformationKey>
        </DataArray>
      </Points>
      <Cells>
        <DataArray type="Int64" Name="connectivity" format="ascii" RangeMin="0" RangeMax="7">
          0 1 2 3 4 5
          6 7
        </DataArray>
        <DataArray type="Int64" Name="offsets" format="ascii" RangeMin="8" RangeMax="8">
          8
        </DataArray>
        <DataArray type="UInt8" Name="types" format="ascii" RangeMin="12" RangeMax="12">
          12
        </DataArray>
      </Cells>
    </Piece>
  </UnstructuredGrid>
</VTKFile>
