<?xml version="1.0"?>
<VTKFile type="UnstructuredGrid" version="0.1" byte_order="LittleEndian" header_type="UInt32" compressor="vtkZLibDataCompressor">
  <UnstructuredGrid>
    <Piece NumberOfPoints="780" NumberOfCells="454">
      <PointData>
        <DataArray type="Int32" Name="libmesh_node_id" format="ascii" RangeMin="1278" RangeMax="5063">
          1278 1279 1280 1281 1282 1283
          1284 1285 1286 1287 1288 1289
          1290 1291 1292 1293 1294 1295
          1296 1297 1298 1299 1300 1301
          1302 1303 1304 1305 1306 1307
          1308 1309 1310 1311 1312 1313
          1314 1315 1316 1317 1318 1319
          1320 1321 1322 1323 1324 1325
          1329 1330 1331 1332 1333 1334
          1335 1336 1337 1338 1339 1340
          1341 1342 1343 1344 1345 1346
          1347 1348 1349 1350 1351 1352
          1356 1357 1358 1359 1360 1361
          1362 1363 1364 1365 1366 1367
          1368 1369 1370 1371 1372 1373
          1374 1375 1376 1377 1378 1379
          1383 1384 1385 1386 1387 1388
          1389 1390 1391 1392 1393 1394
          1395 1396 1397 1398 1399 1400
          1401 1402 1403 1404 1405 1406
          1410 1411 1412 1413 1414 1415
          1416 1417 1418 1419 1420 1421
          1422 1423 1424 1425 1426 1427
          1428 1429 1430 1431 1432 1433
          1437 1438 1439 1440 1441 1442
          1443 1444 1445 1446 1447 1448
          1449 1450 1451 1452 1453 1454
          1455 1456 1457 1458 1459 1460
          1461 1462 1463 1464 1465 1466
          1467 1468 1469 1470 1471 1472
          1473 1474 1475 1476 1477 1478
          1479 1480 1481 1482 1483 1484
          1485 1486 1487 1488 1489 1490
          1491 1492 1493 1494 1495 1496
          1497 1498 1499 1500 1501 1502
          1503 1504 1505 1506 1507 1508
          1509 1510 1511 1512 1513 1514
          1515 1516 1517 1518 1519 1520
          1521 1522 1523 1524 1525 1526
          1527 1528 1529 1530 1531 1532
          1533 1534 1535 1536 1537 1538
          1539 1540 1541 1542 1543 1544
          1545 1546 1547 1548 1549 1550
          1551 1552 1553 1554 1555 1556
          1557 1558 1559 1560 1561 1562
          1563 1564 1565 1566 1567 1568
          1569 1570 1571 1572 1573 1574
          1575 1576 1577 1578 1579 1580
          1581 1582 1583 1584 1585 1586
          1587 1588 1589 1590 1591 1592
          1593 1594 1595 1596 1597 1598
          1599 1600 1601 1602 1603 1604
          1605 1606 1607 1608 1609 1610
          1611 1612 1613 1614 1615 1616
          1617 1618 1619 1620 1621 1622
          1623 1624 1625 1626 1627 1628
          1629 1630 1631 1632 1633 1634
          1635 1636 1637 1638 1639 1640
          1641 1642 1643 1644 1645 1646
          1647 1648 1649 1650 1651 1652
          1653 1654 1655 1656 1657 1658
          1659 1660 1661 1662 1663 1664
          1665 1666 1667 1668 1669 1670
          1671 1672 1673 1674 1675 1676
          1680 1681 1682 1683 1684 1685
          1686 1687 1688 1689 1690 1691
          1692 1693 1694 1695 1696 1697
          1698 1699 1700 1701 1702 1703
          1707 1708 1709 1710 1711 1712
          1713 1714 1715 1716 1717 1718
          1719 1720 1721 1722 1723 1724
          1725 1726 1727 1728 1729 1730
          1734 1735 1736 1737 1738 1739
          1740 1741 1742 1743 1744 1745
          1746 1747 1748 1749 1750 1751
          1752 1753 1754 1755 1756 1757
          1761 1762 1763 1764 1765 1766
          1767 1768 1769 1770 1771 1772
          1773 1774 1775 1776 1777 1778
          1779 1780 1781 1782 1783 1784
          1791 1792 1793 1794 1795 1796
          1797 1798 1799 1800 1801 1802
          1803 1804 1805 1806 1807 1808
          1809 1810 1811 1818 1819 1820
          1821 1822 1823 1824 1825 1826
          1827 1828 1829 1830 1831 1832
          1833 1834 1835 1836 1837 1838
          1845 1846 1847 1848 1849 1850
          1851 1852 1853 1854 1855 1856
          1857 1858 1859 1860 1861 1862
          1872 1873 1874 1875 1876 1877
          1878 1879 1880 1881 1882 1883
          1884 1885 1886 2184 2185 2186
          2187 2188 2189 2190 2191 2192
          2193 2194 2195 2196 2197 2198
          2199 2200 2201 2202 2203 2204
          2205 2206 2207 2208 2210 2211
          2212 2214 2215 2216 2218 2219
          2244 2246 2248 2262 2263 2264
          2265 2266 2267 2268 2269 2270
          2271 2272 2273 2592 2593 2594
          2595 2596 2597 2913 2914 2915
          2916 2917 2918 2919 2920 2921
          3336 3337 3338 3339 3340 3341
          3582 3583 3584 3585 3586 3587
          3688 3690 3692 3699 3700 3701
          3702 3703 3704 4161 4162 4163
          4164 4165 4166 4527 4528 4529
          4530 4531 4532 4536 4537 4538
          4539 4540 4541 4671 4672 4673
          4698 4699 4700 4701 4702 4703
          4725 4726 4727 4770 4771 4772
          4884 4885 4886 4905 4906 4907
          4983 4984 4985 5034 5035 5036
          5061 5062 5063 1863 1864 1865
          1887 1888 1889 1890 1891 1892
          1902 1899 1903 1900 1904 1901
          1905 1906 1907 1908 1909 1910
          1911 1912 1913 1914 1915 1916
          2209 2213 2217 2245 2247 2249
          2526 2525 2530 2529 2534 2533
          3234 3235 3236 3237 3238 3239
          3300 3301 3302 3303 3304 3305
          3366 3367 3368 3663 3665 3667
          3687 3386 3689 3389 3691 3392
          3705 3706 3707 3939 3940 3941
          3942 3943 3944 4467 4468 4469
          3455 3458 3461 3210 3120 3212
          3124 3214 3128 4441 4443 4445
          3119 3123 3127 3231 3232 3233
        </DataArray>
        <DataArray type="Float64" Name="resid_x" format="ascii" RangeMin="-0.4352027037304378" RangeMax="0.37469920704527837">
          0.1949789525384542 0.12706460090240812 0.37469920704527837 0.28026903342999976 0.17429625170045338 0.1490959468941626
          -0.06607617772810892 -0.11923049370140815 -0.13748434045600932 -0.2848333009920947 -0.0780593878546032 -0.18771080610617652
          0.09703705185754696 0.020495983707673915 0.2947824066018647 0.07548952192897573 0.16912728574459823 0.0806605177250801
          -0.16006710487479925 0.06784323015820082 -0.4352027037304378 0.07560896161786657 -0.25056287246723574 -0.024881276384820517
          -0.05757300057720016 -0.08694720982939685 -0.09355179447373452 -0.15212260921455112 -0.031649762369161394 -0.0584088334785573
          0.036415728231295574 0.02895371044326467 0.06748770040630614 0.05317580120137766 0.03229907917916197 0.025716273070940154
          0.009262159350700294 0.0028360518940226953 0.01755326567775306 0.0049210440916231946 0.006394408178752364 0.001330524687332968
          -0.034259817208641685 -0.022789683367808067 -0.07282650188620465 -0.048321290244072834 -0.042198605556683866 -0.030801209817914454
          0.11164408305512197 0.22141318304664992 0.10444074631143252 0.09807729604220405 0.1775179741907067 0.07729776122900489
          -0.03382951736445872 -0.07508443006281684 -0.04104756140924071 -0.16296834727920917 -0.3097870337365114 -0.14233993700812153
          0.0002904448172045271 0.00012019262208307069 0.00011897249232095675 0.005377180121802105 0.007029785478413153 0.0017637622558561716
          0.0062281631508254165 0.009110308608048179 0.0023898771963546395 -0.0065532824643970145 -0.013543514564897663 -0.01011971651342547
          0.12018815133197691 0.2421665011737133 0.1226566077646929 0.0694533459274469 0.11581894061067022 0.041670793038697695
          -0.16647591987460508 -0.3342705083006656 -0.15694980968465355 -0.012175363786023574 -0.018350426857725033 -0.006672922892965616
          -0.003472987114341297 -0.0057569469824758635 -0.003824975707401812 -0.0016821696693614108 -0.0011703634014210706 -0.003274620919880622
          0.00033870255861945253 -0.00013993869417294746 -0.0020196725426790962 0.0028303756847858352 0.00017511973013806248 -0.004131434512985699
          0.00982832864693961 0.01986684134064376 0.010167310976832766 0.09540426725507789 0.16444001690564747 0.06722100143550769
          -0.06846356427895373 -0.14615771487384688 -0.06396717872945512 -0.0072199169193929436 0.0017835492207156634 0.004462082285010105
          -0.02695190311553297 -0.049756488492826545 -0.02358836603010772 0.000491035274172269 0.003118862367906594 -0.0023396528565484687
          0.00040513172218181737 0.00009941365640742106 -0.0022324701728337892 -0.0007190519261266459 -0.00169856904792276 -0.0038570725695423747
          -0.0005601668015930983 0.0011215721728667916 0.0076074183972991705 0.008210984321444847 0.007772412995573852 -0.00420634145791432
          0.049654206707117066 0.06825834212674353 0.025094204161576705 -0.020230973563236887 -0.008699096905911308 0.002132133933638869
          -0.03369616794351771 -0.050629625521301236 -0.025131521472521623 -0.0013584667967192487 -0.0002191234986663737 -0.0022552770340507067
          0.0033308946349004387 0.0009017856089510445 -0.003668019728244154 0.00039181842785573906 -0.0026313577848611214 -0.006251119360292989
          0.0008642922469963565 0.003025087510145852 0.0051912960630300375 0.022361202925990753 0.04374078344779786 0.019030371103979427
          0.029413179944216772 0.04229138153384593 0.014432086981038594 -0.028331556929639845 -0.06631708858596763 -0.03607653626620788
          -0.007898123961222137 -0.004322736663513016 -0.0033702882155339786 -0.0017596277948404015 0.0029241433655835536 0.0006821208644121057
          0.004345471289614711 0.0020868809140734967 -0.004644329854856188 0.003013177881864948 0.0014767082045579194 -0.005314365937336696
          -0.007779777517084696 -0.013452570677706888 -0.0008015356154400521 0.024777425332598746 0.053260816257184374 0.0297683998192122
          0.07284984148225782 0.1337122469205152 0.05903519732041218 -0.04860555086938145 -0.09493121245911551 -0.05432950777452916
          -0.035794165631584995 -0.07916899275746259 -0.04103163244999841 -0.0023173701845724537 -0.002129287827022708 -0.003415660875671911
          0.0020390028880350464 0.0020205541518873993 -0.005225327375632638 0.003205247342959794 0.0006582326463129284 -0.004648276703953957
          0.0006956654758205616 -0.00017143200313984863 -0.005749231069670735 -0.1021251970226622 -0.17442473823525262 -0.0561450404736803
          0.08483025461571625 0.18840884337291186 0.1135630271081336 0.08320756020026199 0.08688883537845316 -0.007323651761715233
          -0.12695251648391315 -0.22896084991533527 -0.10851160386477154 -0.02642022868860039 -0.04771093152990469 -0.0230869992300331
          -0.0020536414403915515 -0.006640620295998101 -0.007520231128069099 -0.0005887869918748123 -0.003184599428692536 -0.00857452871545128
          0.0017489380724304837 -0.00011048388892609395 -0.0048375951455854604 0.0006526929920838143 -0.00133703451135192 -0.006700899077622502
          -0.03062690722472894 -0.0268106176844789 0.007591189296187295 0.07678411825980902 0.13322639783583412 0.058692738216501894
          -0.006863934768109647 -0.05379153427856398 -0.05722894918881938 -0.07852151414461339 -0.142512943295781 -0.06383281134238494
          -0.0035183106020233446 -0.003728349989377655 -0.006633326197539979 -0.0011950402975382524 -0.002349474282713704 -0.006084266204211097
          0.0004316504043635483 -0.001784711951836826 -0.007061322627581301 0.0009792943198401183 -0.00016498667327802252 -0.005303762143505253
          0.0004925654728182849 -0.0002581221723878535 -0.005497009308937706 0.01674049933212629 0.044495922270769483 0.03352044870765525
          0.028620807708143126 0.03044525558543576 0.004761518707184997 -0.031960961995490145 -0.062165490812226665 -0.03766005946309736
          -0.011314295926151186 -0.021037144410797737 -0.014072006337690013 0.0015575678744816912 -0.0004106737616869083 -0.006864146537234106
          0.001055515105166549 0.0008837333162499128 -0.006411537393662403 0.0007561201398345041 0.00007516841966292986 -0.005867328109006031
          0.0006061336165030795 0.000014598602418480766 -0.004972571909749313 -0.00022505294332786363 -0.0010197575081343224 -0.005206019799318895
          0.0071132317033075765 0.018396337765846482 0.013226299104736938 -0.0024404542661122797 -0.0046559936524159795 -0.006308574705885306
          -0.002252320551543896 -0.0035377621910903656 -0.007912576079296407 0.0005291040985544448 -0.0028423331464950685 -0.009395257776920296
          0.0021147460550250408 -0.0019876781919725417 -0.008557054751881399 0.001720444320882919 0.0009694718531383373 -0.007101012358459613
          0.0010513680673422954 0.0005605832007988809 -0.005663935718622781 0.0009310231692447601 0.0011688172932093899 -0.004319780841040455
          -0.0013179187253351543 0.00024271441098822066 -0.0031921587109504657 0.03486911537605408 0.07272228690827731 0.03193994328636052
          -0.04873106053209675 -0.10049179098420691 -0.06075956460860965 0.0007780431192419002 0.002631075376581027 -0.008009283049644544
          0.0021810040602061598 -0.0005291306295558407 -0.009547377439296234 0.0030285982510380727 0.0003637521754971118 -0.008163653486266575
          0.0020268429954910516 0.0016056311926861966 -0.006739244333601846 0.0010555095132751546 0.0011015978055004538 -0.005251154205794251
          0.0006038101051411005 0.0009774747134061457 -0.004581029279678184 -0.0014322004904845365 -0.0005698326208185556 -0.001827318648706111
          0.11096576321710039 0.1915783610374433 0.06404810984453313 -0.11445494820754964 -0.18876077291456772 -0.08354458699060707
          0.0004813191405279582 0.0031841578298683615 -0.01026578189794769 0.0007436647214862369 0.004325068930295384 -0.006747516295895206
          0.0018682175357924713 0.0017989770488680001 -0.007537854454469084 0.001799064407588702 0.0013571409711206073 -0.006270950416390697
          0.0005187211567942995 0.0007194725362102972 -0.004905093927049187 0.0007774929362236449 0.0020797737072095757 -0.0031665872612887114
          0.0002966960174406452 0.0031136586764377583 -0.00016888190039132667 0.02051459514980536 0.026351008617647054 0.0006284175943571668
          -0.015288227008382727 -0.017817062041773468 -0.012297930757839026 -0.00023268770633189106 -0.0004773629095740084 -0.01014251106350006
          0.00003467399907375324 0.00048199872158694035 -0.008395746118605718 0.0007335171952544961 0.0009159421009772295 -0.007809918008066408
          0.0004457433278401979 -0.000332041629851787 -0.006453764971527498 -0.0005049304753423911 0.00012231315331412418 -0.004020872424924882
          -0.0004602140244269748 0.0016599558650503 -0.0018309164671936884 0.0005332580322336966 0.0029396264796162086 -0.00025906929729035966
          -0.003543379482062292 -0.00005288591247776253 -0.007997676655175923 0.000375071165471752 0.0003532262172378786 -0.010789877189348651
          0.0005568210391730943 0.0004488489294831588 -0.008885646885585352 0.0005899378519385046 0.00018079667703352342 -0.00811976210777443
          -0.000399540186491798 0.00028856573870683633 -0.004780086884175638 0.00022836806162018775 0.002131425068887971 -0.0020602024587974554
          -0.00015420913772867806 0.003388730943900242 0.00012180266809647122 -0.00035903468986386855 0.002016785500291718 0.00037723372965459134
          -0.0011461585831966659 -0.0012844220064138767 -0.010626843954234744 0.0007688582653160303 0.0013464508548777232 -0.009940340248672186
          0.00023238357694532752 0.00016862087888203092 -0.009070360537799527 -0.0007976513739222924 -0.0006278745853691703 -0.0071618779634468055
          -0.0004111315366026602 -0.00001370641668074768 -0.004766252009129168 -0.00035121970885754195 0.0022749000627131366 -0.0014667774130456834
          0.00029667532351140835 0.002899824773793469 0.0004569856751936996 0.001110793805120025 0.004445571575121043 0.002478603772796184
          -0.003323327056723002 -0.009684859476333685 -0.013665932667286995 -0.00006132288308036138 -0.002948134695885063 -0.010166520132154133
          -0.0008455104735274332 -0.0032995156637545264 -0.010906615776322681 0.0007354092418347946 -0.0012564539938875185 -0.008102866778751938
          -0.00018288964964341403 0.00014614306509397323 -0.003378607508264686 -0.001960594116965808 0.0014220310575963069 -0.0014814348639919928
          -0.0003492067348380701 0.0021109664027489927 0.0001111034597922611 -0.0035784097570314977 -0.0021331263974841974 0.0006816710134107673
          0.005566619585417598 0.01012385349263667 -0.002265238639841627 0.0021019446482535287 -0.00021899661287250183 -0.005542154940330057
          0.003282768053816554 0.005408754278927397 -0.005834757693046644 0.0010239360396600006 0.007937496491109641 -0.004765419781995739
          0.0053839213578816825 0.004391187224273452 -0.00120158813164295 0.0013036003419832909 0.007837298388971625 0.0022988278781435056
          -0.0014104957478799918 0.002446957741249811 0.0011667058485445025 -0.0006265686179034446 0.0047000864088939664 0.004511814143161708
          -0.0003843955354270179 -0.00423560046226612 -0.007406507188841616 0.0006771194160162253 0.007442834927658737 0.0030640188854054173
          -0.002277518801803602 0.013421722139828951 0.006597448336629341 0.010091015094223721 0.007726428839220922 -0.001580694937541871
          0.000842988873841044 0.009412326807573201 0.0037898882059428374 0.0008702946140166645 0.007854435355289624 0.005406512453427048
          -0.0005509700094372683 0.004449731576747773 0.0061317228263795265 -0.13141651460156467 -0.28621582261038014 -0.15455941655870653
          -0.021526852258110907 -0.025535230729309077 0.0041011252837064305 -0.005841220310219164 -0.0011332734506170894 -0.00453984473639224
          0.004598406919614106 0.005047783381590065 -0.0016486328627980384 -0.0018795532745246035 0.006072449186361517 0.004031983592493127
          -0.003394087106976862 0.00045879847428054177 0.0037083640560506836 -0.002897664594968763 0.0005918679485414913 0.005621157935138399
          -0.13578115808875246 -0.2804288145744849 -0.14391664598482024 0.0004341517567727493 0.019589286589571486 0.024820783852363526
          0.005906956070663938 0.00509180907750828 -0.007208393056847839 -0.01073828028218049 -0.010041473824845326 0.0017896805633776935
          -0.008683679884561535 -0.007432289547206317 0.0008564233661294551 -0.004267983776325757 -0.006943694269606837 0.0009453160857573195
          0.0019412129356091157 -0.0038078407165720307 0.0016737448785058007 -0.0032797099634249705 -0.0010537916028612315 0.006604060696894898
          -0.003589821939685933 -0.005054519848478378 0.006006878770349999 -0.0021066617424381207 0.0030369360749604724 0.0029064949473438517
          -0.0038768991663724606 -0.0038828632984904132 0.004818852316531341 -0.0011315780420488863 -0.001131138693041489 0.0017682627185395816
          0.0016699347220097138 -0.0016057958348172363 -0.0036037656836080956 0.0017180708928759003 0.0038489360926243776 0.0037117181508947716
          -0.0022257231344191553 -0.0017726595809159917 0.0038916881977408835 0.001363414089715853 0.0011162172120275926 0.0006440354436989537
          0.00025827756870988594 0.002817136067994497 0.0025510241644193243 0.00027291670196483153 -0.0012008082748398152 -0.005778226575349876
          -0.002915797211652027 -0.006215046360241061 -0.007975937445115377 -0.0000035510964506713094 -0.0032077360923707943 -0.0005088291881083506
          0.0010320768263945013 -0.005435448647403085 0.0010818392238070018 0.0076491034058392415 0.00621003554839028 0.005821073836914437
          -0.002822552742753004 -0.006463673953447824 0.0012423141849193797 -0.0004895746450435112 0.0005634776161471677 0.000675292348504275
          0.0023147270192103164 0.0030864410099127326 0.0028897867735606653 0.000530728270534464 0.0035336418762126343 -0.0003309797506512169
          -0.0020228129634851655 -0.001902184239395588 0.0017084098903854539 0.0026370214264717085 0.0005574038184299468 0.004542322416157152
          -0.0005772130805130615 -0.007601374294297969 -0.007371598229497955 -0.0013461804280661127 -0.0038796366055287024 -0.005184853627968167
          0.0009244502683749545 -0.0056705504632930115 -0.00916904560407783 0.0019381168728589415 0.0006334451352119075 0.0005188395326420903
          0.0014018376650439812 0.0024602133454632025 -0.00002392323011024544 0.003243819043181606 -0.007934192831109854 -0.008756441958786443
          -0.00032397275678558435 -0.004041361583278058 0.0025602183247881993 -0.006992140197069618 0.007391438324317545 0.0041353418719110024
          0.0018340937071901209 0.003877464773908379 -0.0003156509474928626 -0.0014301569504260314 -0.0017126742006539075 0.0026152174820985863
          -0.0025180291507158614 0.004876232309438677 0.002272032172707217 -0.002072394283404222 -0.0026417746065781067 0.003839495603739529
          0.0015667680407176476 0.005257417535982967 0.004119878533253463 -0.0007371924111131412 0.0007360580131294814 0.0011959964770659193
          0.0012649361930707759 -0.0010581168776160332 -0.000773777681053911 0.000386127801669911 0.0007169435911120736 0.0006142120066283674
          0.004702350485212836 -0.003259433572895265 -0.0007252009226589307 0.0009224398461480376 -0.0017336498227216168 -0.008445853455638641
          0.0024065549282110688 0.0007266175557507637 0.0032339986480427463 -0.0022177986110099024 -0.004335169191923782 -0.0077924689719135465
          0.0004781085589469214 0.0016768741027624046 -0.0013113494083860644 0.002981753469694759 0.0027167055407266716 -0.010030851871297486
          -0.0018995832268267066 -0.0001399100207959414 0.002463272652963866 0.0021189047509642123 -0.0023782002619658904 -0.009034556262081495
          0.003749992718747208 0.004073705430428731 -0.009286598602889384 0.006425852647988783 0.009109964329174325 -0.007557419923796438
          0.004715408057473169 0.008028187528431818 -0.0016243870735346277 -0.0029234628644800864 -0.006668815823941188 0.0015681327475363105
          -0.0016162848962846255 -0.006061314373338789 0.001801752127846612 -0.00009446816092140153 -0.001407139445261052 0.0016068258358896692
          -0.00725167308658925 -0.0019156675074336604 -0.008186295824065937 -0.006160323510894017 0.00411413923824222 0.00344990463440098
          -0.004324053437460229 0.002616037122461279 0.012673410819625808 0.0028776701396897586 0.005075799716523832 0.0040325296520129505
          -0.0018953050787757775 -0.004588517048429885 0.0025164339482377507 -0.0035221847527537875 -0.009923880137849395 -0.0029358236707097696
          -0.004339764160034676 -0.0034450930067499996 0.005062893739179231 -0.006393652497687086 -0.007202411464900749 -0.0007313882677610906
          0.0016140043659067516 -0.00017373320198643682 0.0017934901024823091 -0.0023110220549806826 0.0016805462731266374 0.0031993434717785263
          -0.001522676382453625 -0.004224725706596821 -0.003269484814651946 -0.0030726657725637097 -0.0014374837064572432 0.0009589460828856033
          0.0027138425156501 0.001853382338824261 0.0063591773893705295 0.0034837913333980453 -0.0019831600502655533 -0.002605097342888385
          0.002144242481655567 0.005659185734227634 -0.004149391449193018 -0.0030329536133795187 -0.003920601005441782 0.0012219351231665954
          0.002298160222816925 -0.000054100353163555326 0.0024531647589807193 -0.0025345166504973093 -0.0013857405689110536 -0.0018265612776513507
          -0.006313464833477056 -0.010293829964910017 -0.0009734508738272751 -0.008275337389525905 -0.004227343922064364 -0.011510979368049234
          -0.004853942145456536 -0.0012442391029745536 0.0011057006339023623 -0.001334253125075513 0.001442755944597529 0.006206624879031786
          0.0023396592262088234 0.0056888843028453095 -0.007067971430254616 -0.00003627881699053148 0.003811163459895184 0.001564231448341502
          0.010056747342392924 -0.01185786206904993 -0.014832705460698037 0.00501836140874623 0.0087046721947317 -0.007071322655978207
          0.005652169764493564 0.010513100906727857 -0.008012786916351544 -0.004867640832350695 -0.0026666608295222716 0.0019520522189298006
        </DataArray>
        <DataArray type="Float64" Name="resid_y" format="ascii" RangeMin="-1.199035563826794" RangeMax="0.22643527777561853">
          0.0316024674709543 -0.18387418318557097 0.08258194384649531 -0.27781930221462225 0.05089682319633976 0.11904432740151438
          -0.02587640060598087 0.0976637429939601 -0.039483751710307824 0.22643527777561853 -0.011722465247049146 0.03581547358065473
          -0.11816696266474284 0.04503542629565599 -0.18189396913823688 0.11073992735552463 -0.07578077207419216 0.0962792505818193
          0.018925641643469326 0.07468467164613082 0.0490473637484441 0.11780086754043609 0.03996899917227188 0.0512647659538073
          0.032839077719681205 0.04405590697829183 0.05174613088395051 0.01881315464710584 0.015366230640516093 -0.11562780669030197
          0.009053744338782366 -0.10541635954092982 0.017645969708298292 -0.27779542027344567 0.008451760986189383 -0.26351595862434474
          0.020800602562906223 -0.09616054902584231 0.04104738221226889 -0.24898116129652548 0.020095998698181072 -0.22316355609597588
          0.009806058391013506 0.12359735928011334 0.018796737075459785 0.1686185315463869 0.008919036349592457 0.06799011248151604
          -0.012925265037649125 -0.030728721767065828 -0.018631852140325686 -0.005224625597798814 -0.013765976937814894 -0.010741543497131308
          0.06985162553816524 0.13924019480670669 0.06825872780042175 0.06214238796203907 0.12519559091338892 0.06066100429777013
          -0.0008389661336195703 -0.000002360666737949435 -0.000038671401980772124 0.002936918747465378 0.005894893606334717 0.0018345203348905659
          0.009102314809951995 0.01700108899995778 0.006540949382147332 0.005587060331670307 0.010273853153067225 0.0027285165900114983
          0.03230766227845917 0.06732363738823337 0.033874334413976165 0.022833876696799614 0.049225892835493286 0.02665982472408407
          0.02733201954217515 0.05710009098085045 0.025709971510388882 0.006822187312641155 0.01924997934510669 0.00728319952687452
          -0.0015702321508997974 0.001118949530073965 -0.0007410804454993924 -0.0007833827278400651 0.0019051032495917553 -0.0007077817293005273
          -0.0020400943786786363 -0.0024414474344297 -0.002328851838513779 -0.001298301277008973 -0.0016246246887992588 -0.0016660511229290575
          0.004807281581624821 0.011100980912225458 0.004702723227168269 0.05458851235807123 0.1074630754213889 0.051045081685012365
          0.02509143767144309 0.05229190853083006 0.025228022438564868 -0.019155013292469894 -0.035429803211616546 -0.0155802106840561
          -0.0051511233068918805 -0.009215221098920673 -0.0038521311899102906 0.0010667033180317143 0.0008514441458127853 -0.0001637981809464173
          -0.0010752017578951056 -0.0016283185041286452 -0.001793242154198349 -0.0012683200325473987 -0.0019858699646205236 -0.0018024000405629514
          -0.00021890594156335347 -0.0006619440543385591 -0.0029528598858709863 0.008470648451135186 0.013021477867142112 -0.0010721770935000902
          -0.0007218405915981746 -0.003935673439275436 -0.00589886096761516 0.002747155626167924 0.005759558102896162 0.0008310897968485387
          0.005153539825322601 0.01253987654745356 0.005397326801918401 -0.0003321364037305874 0.0007656514450554708 -0.000864107223312649
          -0.001797547862112281 -0.0026133704505499344 -0.0024517785075835463 -0.0010007012991020137 -0.0014825798938872814 -0.0018614153123783783
          -0.0015300350318113026 -0.00003152011830580975 0.0011300495826482432 -0.016636512255244873 -0.030233756043880462 -0.012736907496555233
          -0.018410990932065024 -0.040511984739215606 -0.02159672489966047 0.01060118428795584 0.013906163919135572 0.006206442745983143
          0.0023071295086727894 0.004818240368683779 -0.00046294108488420527 -0.0021591653882108153 -0.0033115699395720455 -0.0032354956708803284
          -0.0026516869694105383 -0.003020224542071015 -0.0019472237115482072 -0.0021887896880052327 -0.002652773755048854 -0.0020952665635870504
          -0.003366945323650736 -0.0048694095437999615 -0.0017402246700419094 -0.0064823993999961645 -0.02230163183529012 -0.01806828444510645
          -0.042740276022467175 -0.08024459071350626 -0.03335776737802648 -0.013079761039612336 -0.020490891166344116 -0.004683061679035538
          0.005734618354359289 0.006856959688581743 0.0005914653021409921 -0.005129618880885589 -0.009779396996789369 -0.006257662379671625
          -0.003478823117390395 -0.00445544087901828 -0.0026641916061496684 -0.0023357633028148195 -0.002239953091312752 -0.002041643707560159
          -0.0022962484225152457 -0.0027502110436946614 -0.0017768287290641505 -0.02511062235242989 -0.048416820802500204 -0.025438122537479766
          -0.02518946925165763 -0.044431546109984954 -0.02204263372002313 -0.011312718375367903 -0.011367427351298282 -0.00405133590714396
          0.010093296071302937 0.02712173098468168 0.014930199773634412 0.003478958953548106 0.009898275014134816 0.0018302350697246839
          -0.0034145319796896056 -0.004205171280080855 -0.0037023982465052563 -0.003305305999620256 -0.003730917423539759 -0.003270440698788679
          -0.0026117237166672913 -0.0029894255620598886 -0.0032253077840105338 -0.0022815751411872087 -0.003050853375211826 -0.002223465022792581
          0.026364809130993448 0.0459036260282551 0.02147668327503348 -0.005446354161598471 0.002564683781809296 0.007191621672967857
          0.03159744826233568 0.06427087976534729 0.02741464740000099 0.020875521178305212 0.03926761583741034 0.012815992951960342
          -0.003041348852421244 -0.002049904219973586 -0.0025184815350553502 -0.002588018184021379 -0.0021780049762769593 -0.0029076709515459265
          -0.0034344647776743398 -0.0035059990980892963 -0.0034011478709655707 -0.002903262180931676 -0.0028074571850635333 -0.0030464697898267
          -0.002218528510486595 -0.0024773364263237507 -0.002376590963687031 0.009012699242565203 0.02361232095345206 0.013113985622150486