<?xml version="1.0"?>
<VTKFile type="UnstructuredGrid" version="0.1" byte_order="LittleEndian" header_type="UInt32" compressor="vtkZLibDataCompressor">
  <UnstructuredGrid>
    <Piece NumberOfPoints="798" NumberOfCells="454">
      <PointData>
        <DataArray type="Int32" Name="libmesh_node_id" format="ascii" RangeMin="2250" RangeMax="5441">
          2250 2251 2252 2253 2254 2255
          2256 2257 2258 2259 2260 2261
          2274 2275 2276 2277 2278 2279
          2280 2281 2282 2283 2284 2285
          2298 2299 2300 2301 2302 2303
          2304 2305 2306 2307 2308 2309
          2328 2329 2330 2331 2332 2333
          2334 2335 2336 2337 2338 2339
          2352 2353 2354 2355 2356 2357
          2358 2359 2360 2361 2362 2363
          2376 2377 2378 2379 2380 2381
          2382 2383 2384 2385 2386 2387
          2424 2425 2426 2427 2428 2429
          2430 2431 2432 2445 2446 2447
          2448 2449 2450 2451 2452 2453
          2454 2455 2456 2457 2458 2459
          2460 2461 2462 2481 2482 2483
          2484 2485 2486 2493 2494 2495
          2496 2497 2498 2535 2536 2537
          2538 2539 2540 2541 2542 2543
          2544 2545 2546 2547 2548 2549
          2562 2563 2564 2565 2566 2567
          2568 2569 2570 2571 2572 2573
          2604 2605 2606 2607 2608 2609
          2610 2611 2612 2615 2619 2623
          2625 2626 2627 2628 2629 2630
          2631 2632 2633 2664 2665 2666
          2667 2668 2669 2670 2671 2672
          2787 2788 2789 2790 2791 2792
          2793 2794 2795 2820 2821 2822
          2823 2824 2825 2850 2851 2854
          2855 2858 2859 2880 2882 2884
          2886 2887 2888 2889 2890 2891
          2892 2893 2894 2895 2896 2897
          2898 2899 2900 2928 2929 2930
          2931 2932 2933 2934 2935 2936
          2937 2938 2939 2972 2975 2978
          2979 2980 2981 2982 2983 2984
          2985 2986 2987 2988 2989 2990
          3078 3079 3080 3111 3112 3113
          3114 3115 3116 3129 3130 3131
          3132 3133 3134 3135 3136 3137
          3138 3139 3140 3141 3142 3143
          3144 3145 3146 3147 3148 3149
          3150 3151 3152 3153 3154 3155
          3156 3157 3158 3159 3160 3161
          3162 3163 3164 3165 3166 3167
          3186 3188 3189 3191 3192 3194
          3259 3261 3263 3342 3343 3344
          3345 3346 3347 3435 3436 3437
          3438 3439 3440 3447 3448 3449
          3450 3451 3452 3513 3514 3515
          3519 3520 3521 3522 3523 3524
          3537 3538 3539 3540 3541 3542
          3714 3715 3716 3717 3718 3719
          3720 3721 3722 3792 3793 3794
          3822 3823 3824 3825 3826 3827
          3828 3829 3830 3831 3832 3833
          3855 3856 3857 3858 3859 3860
          3867 3868 3869 3870 3871 3872
          3873 3874 3875 3876 3877 3878
          3879 3880 3881 3883 3886 3889
          3921 3922 3923 3957 3961 3965
          4065 4066 4067 4077 4078 4079
          4086 4087 4088 4119 4120 4121
          4191 4192 4193 4206 4207 4210
          4211 4214 4215 4224 4225 4226
          4227 4228 4229 4251 4252 4253
          4260 4261 4262 4263 4264 4265
          4275 4276 4277 4278 4279 4280
          4296 4297 4298 4347 4348 4349
          4401 4402 4403 4404 4405 4406
          4407 4408 4409 4410 4411 4412
          4413 4414 4415 4431 4432 4433
          4452 4453 4454 4461 4462 4463
          4464 4465 4466 4533 4534 4535
          4551 4552 4553 4554 4555 4556
          4557 4558 4559 4560 4561 4562
          4590 4591 4592 4593 4594 4595
          4608 4609 4610 4617 4618 4619
          4620 4621 4622 4623 4624 4625
          4626 4627 4628 4629 4630 4631
          4665 4666 4667 4668 4669 4670
          4680 4681 4682 4683 4684 4685
          4719 4720 4721 4728 4729 4730
          4731 4732 4733 4734 4735 4736
          4752 4753 4754 4761 4762 4763
          4764 4765 4766 4767 4768 4769
          4773 4774 4775 4785 4786 4787
          4869 4870 4871 4881 4882 4883
          4887 4888 4889 4890 4891 4892
          4893 4894 4895 4917 4918 4919
          4920 4921 4922 4926 4927 4928
          4929 4930 4931 4962 4963 4964
          4965 4966 4967 4971 4972 4973
          4974 4975 4976 4995 4996 4997
          4998 4999 5000 5001 5002 5003
          5004 5005 5006 5022 5023 5024
          5031 5032 5033 5037 5038 5039
          5046 5047 5048 5049 5050 5051
          5052 5053 5054 5058 5059 5060
          5064 5065 5066 5067 5068 5069
          5070 5071 5072 5076 5077 5078
          5082 5083 5084 5085 5086 5087
          5091 5092 5093 5097 5098 5099
          5100 5101 5102 5106 5107 5108
          5109 5110 5111 5112 5113 5114
          5115 5116 5117 5118 5119 5120
          5121 5122 5123 5124 5125 5126
          5127 5128 5129 5130 5131 5132
          5133 5134 5135 5136 5137 5138
          5139 5140 5141 5142 5143 5144
          5145 5146 5147 5148 5149 5150
          5154 5155 5156 5157 5158 5159
          5163 5164 5165 5166 5167 5168
          5172 5173 5174 5175 5176 5177
          5181 5182 5183 5184 5185 5186
          5190 5191 5192 5193 5194 5195
          5196 5197 5198 5199 5200 5201
          5250 5251 5252 5277 5278 5279
          5304 5305 5306 5331 5332 5333
          2852 2853 2856 2857 2860 2861
          2970 2644 2971 2973 2647 2974
          2976 2650 2977 3187 3190 3193
          4662 4663 4664 3270 3271 3272
          5151 5152 5153 5160 5161 5162
          5169 5170 5171 5178 5179 5180
          5187 5188 5189 5202 5203 5204
          5205 5206 5207 5253 5254 5255
          5280 5281 5282 5307 5308 5309
          5334 5335 5336 5358 5359 5360
          5361 5362 5363 5385 5386 5387
          5412 5413 5414 5439 5440 5441
        </DataArray>
        <DataArray type="Float64" Name="resid_x" format="ascii" RangeMin="-0.03391945751335612" RangeMax="0.008702485677775762">
          -0.00012704394002938102 0.0007002763733678918 0.00005974899981028847 0.0015552629267969742 -0.00426842995284904 -0.005228369494475693
          -0.007416438278329024 -0.003325415188166758 -0.01176361315753649 -0.011340654481770684 -0.01405113363950572 -0.015714004112191038
          -0.000020558265926062802 0.0009298809327584756 0.0012824876856711853 0.002019713411539392 -0.0026820013603767734 -0.003421775973307728
          -0.002180331335158936 -0.004775087887336937 -0.016549466386084788 -0.016174899427085165 -0.015204505504166965 -0.018551024488123513
          -0.0013397799332972582 0.004831232913287131 -0.0016294504368072893 -0.0007112754573768143 -0.001800546642046541 0.007176765890107184
          -0.0024016944858384903 -0.0009187383563808993 -0.0026511268214761685 0.0008348362721122271 -0.0020130854233038065 -0.0043306545784975725
          -0.007596681094770297 0.0006744047563369548 -0.0002516036452981929 -0.01099151530347564 -0.017381940059667755 -0.0008265219948837554
          -0.00607665241460964 -0.02850856623323228 -0.01727625527542287 -0.011706494832993464 -0.01644730813580031 -0.023077495832956485
          -0.00009303021453543892 0.00038623793596492817 0.0007999630345061348 0.0012370194214215147 -0.0024710654082351624 -0.0017527260696637015
          -0.003256615171155275 -0.0025189202690452106 -0.010409471953241045 -0.011474489378694663 -0.013830469927873068 -0.012663546787170965
          -0.00018027372007622944 0.0015938955456586967 0.0014852770202757881 0.002171169199457701 -0.003258878708270352 -0.0050198482560004365
          -0.001551822637784639 -0.003795381712217605 -0.01801490715674614 -0.02414963419372196 -0.024058532875128158 -0.022000426079420876
          -0.008699233244088944 -0.0016165241674879205 -0.0029876355596396564 -0.005112439956223458 -0.0021828271841917157 -0.004192065429430958
          -0.01669309214892456 -0.016168662806348433 -0.019376874690614443 -0.013864448345465519 -0.008441994445196777 -0.007120290475052471
          -0.0021044311495304058 -0.022658227195098135 -0.019244134462646834 0.00024474860516354724 0.0005929454510715804 0.0006275543200189304
          0.0026946004023147285 -0.0005255909237957823 -0.0002247272560123026 0.00001582080432260824 0.0010142480346768679 -0.009677257742767509
          -0.008523396817842865 -0.008118623190651597 -0.01010083174944909 -0.006257996658027842 -0.00878033089202468 -0.003812289409344416
          -0.007028044711788972 -0.015235510558507137 -0.01862155198004256 -0.01641826603432417 -0.008772983763465358 -0.004895754618865045
          -0.0009332668387020959 -0.015220755473771774 -0.015028774754858532 0.0014625683325792949 0.0050291685086287785 -0.0054240803890488465
          0.003514275106539344 0.008702485677775762 -0.009394029985066332 0.0003027277149847407 0.002222877692509506 -0.004847400628227305
          -0.010841029424554893 -0.007042702037654891 -0.006201601792662714 -0.004187230047829615 -0.017066060022066232 -0.017131465356301057
          0.000021380673109305803 0.0012612399309204214 0.0012008430984380425 0.0017109345565593514 -0.0013800497294678138 -0.0018673982623051977
          -0.0006158653779433365 -0.002004603521378101 -0.012751381777992066 -0.016269790615077273 -0.014678614918672395 -0.014451976809072953
          -0.009749222012546355 -0.014519233136564225 -0.005325007077156663 -0.002858158333924443 -0.007639367164156141 -0.0017727370414952759
          -0.012651607103396856 -0.015691509017045746 -0.011240294889314661 -0.013536098154692588 -0.014418045279137814 -0.020603515260462224
          -0.009934029771515362 -0.003366777179629743 -0.003919301279825316 -0.00444318344030048 -0.0011151476048985032 -0.0016487831907350259
          -0.01620429019576708 -0.019173234571336906 -0.011766051677087885 -0.010752777616248377 -0.0019009401367031664 -0.009676993017715407
          -0.002124531988616285 0.000057091886076054976 -0.003497466680737027 -0.01185138078901371 -0.010683585575761878 -0.016239380664474723
          -0.009180481464814427 -0.0034015313690911597 -0.009178121631269853 -0.004703212428592174 -0.002572595813881584 -0.005662632983911564
          -0.015168762253244594 -0.01012026925109133 -0.012461007640829802 -0.010579770860111637 -0.008404162907553747 -0.007890996089011892
          -0.00406258997413822 -0.012744234263907472 -0.015109986450910995 -0.004894954116323902 -0.0031326227266355033 -0.00986554792876504
          -0.008659352416144017 -0.013240411928963525 -0.015571363171316577 -0.013221016532246388 -0.024666626683782056 -0.012269875385998219
          -0.0016273185554416258 -0.00047721651142929034 -0.0007437136776164976 -0.0023664445967792602 -0.006708083677825272 -0.006918854346139369
          -0.008281650497955262 -0.015423764347411328 -0.0005510502308174736 -0.0037894039456825013 -0.012692907570548861 -0.01397266938149766
          -0.02067000324738011 -0.006119383702630543 -0.017693662981816516 -0.000040373919578229334 0.0012402149120900319 0.0011535507502333786
          0.0020741693030816855 -0.003115388328128965 -0.0054729111864944 -0.0036466839965214604 -0.004071133732078458 -0.016096687345173777
          -0.019506336778692734 -0.020903618716550554 -0.0192594752919355 -0.0030322571186349734 -0.006569913927823023 -0.004232995266967521
          -0.0009402636085606986 -0.0006588273172916104 -0.0006527203014687899 0.0006408657183420985 -0.0025296647277244233 -0.003243501276223526
          -0.010469273096433751 -0.011473219508876475 -0.007079003630825698 -0.007505884794232642 -0.009599581807304691 -0.008420010711924775
          -0.010342019990073226 -0.002348370975277625 -0.011262641287276942 -0.007669876438605172 -0.014102053103524526 -0.0028333550060395396
          -0.0025250853880161017 -0.010100629332280064 -0.011626184414648577 -0.009419290834580707 -0.007350923759769756 -0.007333085039551435
          -0.003883253868053771 -0.0035208106271298334 -0.0012620058480834473 -0.010098018011829524 -0.0035032670461694337 -0.009196459044676253
          -0.004108095223958941 -0.00938644142180145 -0.0070396824645220235 -0.011472350262973663 -0.010807582433337015 -0.0033471767473614022
          -0.002332635493361823 -0.0062468094582088796 -0.004428146310942793 -0.0019217479973203666 -0.00019012566323528546 0.00036097328250850325
          -0.0013914098757012994 -0.001404133531766938 -0.00029924161210104216 -0.0012378003103279411 -0.00024354895410105826 -0.00213360352348424
          -0.0015907694535055583 -0.002060880672713594 -0.0029354245205510665 -0.012420551463417695 -0.004214233799893385 -0.015987591624485376
          -0.008718493592326126 -0.010466776514166387 -0.005219679854119974 -0.011204278762857456 -0.01286481079002133 -0.021671640672876524
          -0.01158147769024609 -0.015217858600566458 -0.008221283133138968 -0.027864443417346507 -0.015179532501690574 -0.015587937901865523
          -0.01534071181018426 -0.014342245430967182 -0.010412361365149003 -0.013447496026795402 -0.012040668504840646 -0.0045542446495328015
          -0.006773301476121318 -0.015833091375366593 -0.015402207885958141 -0.010458360075679074 -0.018014363999833805 -0.003371916144086995
          -0.012090015847274316 -0.01644030496083479 -0.013419914761275464 -0.010707274448463977 -0.009313490079016606 -0.000981176321948496
          -0.003686203800246979 -0.011580013991404847 -0.011432125114940739 -0.009640284936267562 -0.0053211135925277375 -0.010751526940612877
          -0.019088950736724897 -0.011033038920154503 -0.005369633341486768 -0.007980806657749362 -0.019433131311301644 -0.011924512241886731
          -0.01614642698270785 -0.013655702394701486 -0.015559092337738889 -0.0074195606404323655 -0.009194384524695565 -0.0067422216569941185
          -0.00534879702195834 -0.018302886420685116 -0.009910685233541772 -0.0024383029220597097 -0.009943577249881486 -0.007027938965085134
          -0.00869750606935038 -0.019502387058981885 -0.014229513608746025 -0.011327270863461303 -0.0017662155820807879 -0.011907058861338138
          -0.02310810045751488 -0.017396664215498348 -0.008876590268744877 -0.006820744670470447 -0.021144438813567312 -0.017828781918789005
          -0.009329947576308228 -0.013078031965057413 -0.000997914337231176 -0.003377872750500721 -0.011770678656358946 -0.013643388686770841
          -0.002829778702267305 -0.003410205055926596 0.00032631122149795466 -0.0017195039681041635 -0.0011737232212503113 -0.003561255840779154
          -0.017426179941849806 -0.0067923166056793605 -0.005099951866510466 -0.0032312021283065206 -0.013764151771858746 -0.0059797026066119585
          -0.01482883064991114 -0.012596215346910244 -0.0145775846621099 -0.0238429176159336 -0.003369490255373586 -0.013605340206449767
          -0.014584237771495978 -0.008578753048895327 -0.012916044819219152 -0.016830003486168366 -0.02587906957751329 -0.014978321808971629
          -0.016818268721150442 -0.002770901620007926 -0.014794455053819267 -0.016858231090596032 -0.024391810051969998 -0.01344113939167979
          -0.011928278418845029 -0.005317819512082433 -0.007804886121840271 -0.018031145639365587 -0.0033483263094526983 -0.014317806860949744
          -0.013110464994759319 -0.003183898555847442 -0.01124379391788688 -0.01200856891978841 -0.014180145292748136 -0.01011715238230071
          -0.011587066768206089 -0.0024235420516940387 -0.00976806307415945 -0.007959980658644561 -0.01992072250526533 -0.01739061594827973
          -0.03391945751335612 -0.011267673597588512 -0.02443562733521709 -0.00018718155220476262 -0.006728715261141716 -0.0006891683410277238
          -0.003902222208497008 -0.0038541240920180186 -0.011332075678910147 -0.0224231278999385 -0.02889552146224794 -0.017012982466839688
          -0.005663339126727784 -0.013631830848898296 -0.0020419180907467194 -0.0035427469516982057 -0.006857986127481119 -0.012539287966981227
          -0.001547545029975339 -0.00021472467792982286 0.0006352192545371338 0.00100861166176891 -0.002569596062331314 -0.004128113239428188
          -0.005222385927851292 -0.0018035060630339217 -0.0045378418511266005 -0.01710865830395214 -0.017148617556369317 -0.010510683245759544
          -0.0029332477724874906 -0.0017384674851834703 -0.0029385218782600475 -0.00045830810058600235 -0.004863969897670906 -0.004477958802851845
          -0.0042629645773359925 -0.0030095948479198498 -0.002842818932188962 -0.003179442605818039 -0.009105406629846158 -0.010063878850067098
          -0.015614182388989484 -0.0077868730360659555 -0.008686811400306915 -0.01512175198890331 -0.014248412229920682 -0.011140982459042714
          -0.008253917562221158 -0.0016471354738292199 -0.004438408967873286 -0.011014068760819562 -0.004939493106427939 -0.006480302907766244
          -0.0024005787825469582 -0.014915901492954298 -0.007654477348149058 -0.015295859882638485 -0.004155369969451872 -0.012459793277912912
          -0.002536802162765639 -0.007887160751079314 0.000011727028662811279 0.001012287053769434 -0.0026658917602517818 -0.0058472648806722205
          -0.0006441951850488792 -0.00007624586551724377 -0.005734869045538993 -0.013400853553456216 -0.00886826355304482 -0.005177303061715932
          -0.016644801431451306 -0.0038405609605698388 -0.010776239485299044 0.00021146143526173944 -0.019380649172437536 -0.008472718792966738
          -0.014250444412239105 -0.006418098340772005 -0.009558561005992061 -0.007794128487574881 -0.01592922119698903 -0.003387703295024913
          -0.01045532173406638 -0.011377006529259326 -0.015639433437929284 -0.009446741602266329 -0.0038371959990310955 -0.0012457910941368056
          -0.002340462161492418 -0.011083462105576203 -0.009553548971684478 -0.018515015227587917 -0.0006428289024329459 -0.007213448923786281
          -0.020890984136223256 -0.00015185942480178127 -0.008319062459570148 -0.009634390167348239 -0.0018301197022450588 -0.008945691977312098
          -0.016861459237756282 -0.008748971692687846 -0.00023953169451873535 -0.00014872921372255377 -0.006351476376659004 -0.0035945261811747287
          -0.010756882487598651 -0.0022416044573345673 -0.009280168000445288 -0.00034062155243397285 -0.004815526884331511 -0.009974047463740199
          0.00012214336750382415 -0.007010527608915851 -0.0016673167685747892 -0.005248805066559115 -0.011737252955662747 -0.008155146595480112
          -0.007899755472286496 -0.002641790170954561 -0.005378256634832157 -0.002882222389874123 -0.0013330316917281593 -0.0073616293386420395
          -0.0009861920527924894 -0.0023456146845122205 -0.005384184880742993 -0.006606087301467944 -0.006469959272240811 -0.011019369813009217
          -0.005466429673929518 -0.004112693194585404 -0.006326462553411183 -0.020246867704527105 -0.004287582973000248 -0.012658823186091794
          -0.004456059131468848 0.0003896349409249211 -0.00046255496426717 -0.01291316515426999 -0.008116422479682583 -0.00899619751857994
          -0.015198745478606668 -0.00800155576735051 -0.00559071927005661 -0.0036891921198209943 -0.01007079628786789 -0.0060683123166742625
          -0.006767857398083166 -0.0003747576677586295 -0.007812803277811753 -0.015782516946286407 -0.018165946491750518 -0.0023857489288250378
          -0.008903089508822681 -0.006826518944167859 -0.012373260914606554 -0.013648145474761897 -0.013073050678826803 -0.004524151827791201
          -0.006651699694120161 -0.009884632219786305 -0.007126601764882778 -0.009076911716899616 -0.009659870683362826 -0.0006922405886093941
          -0.0012522390300802044 -0.004238587254667969 -0.005612890072677956 -0.002676108126647314 -0.0023309392496262404 -0.0007887218733761969
          0.00007049788993551687 -0.004669232228986964 -0.006597753270156659 -0.012181952037866317 -0.002681110869884762 -0.0012772262092015652
          -0.005731494985139918 -0.0014189800453152657 -0.00042896930059121985 -0.00765261640850845 -0.0026912606006757045 -0.002117318249410971
          -0.010206535409273076 -0.00013508175006249346 -0.005764862608411914 -0.0025798994103789497 -0.0014843268708348845 -0.0018308740271972823
          -0.004963983155708895 -0.001003586340505791 -0.0035171528230275584 -0.007549262422871905 -0.000405946844331595 -0.0026555101057059716
          -0.00019178201288472252 -0.0002449058374569546 -0.0014489748959789495 -0.00007562288326568023 -0.00014867093743031745 -0.00045434539961553
          -0.0006641173247130538 -0.00026629354344098743 -0.0006755352666489856 -0.0015336757441666293 -0.00056778475682151 -0.0007755938495108694
          -0.004674323041736983 -0.0014210451693594806 -0.004074309477446469 -0.00609161967244809 -0.0071572352642164105 -0.0024311084210788536
          -0.00033087655519459247 -0.0036469053892700387 -0.0022934330052351015 -0.00020603702614607755 0.00038956007347401567 -0.00031140340868152094
          -0.002713577775073972 -0.0006446713798078374 -0.0006637507349773752 -0.0005833741738570097 -0.0002734030800528586 -0.001064532273105101
          -0.0001911756941010978 -0.00013446448442078207 -0.0005413640929194941 -0.00021900564907184616 0.000032797629667236095 -0.00035178392091061994
          -0.00006188487645353291 0.0000971055148006883 -0.0012261419626060643 -0.0004509136428829663 -0.000647331761893355 0.0006861760625369584
          0.0005256357658680599 -0.0022196272627628133 -0.000766310715951235 -0.0006798082907906178 -0.0008434834363875154 0.0005500245018357219
          0.0005379168894741326 -0.0016025863802227036 -0.0008493372414477562 -0.0006695067619606476 0.00005898599731857246 0.0005176033627911636
          0.00016748476397232537 -0.00097767580942687 -0.0004956551071479964 -0.0007072926037103855 0.0009239057667596029 -0.0035802349234277386
          -0.0007640080665733961 0.00033876678094557633 -0.0011417750408391214 -0.0016462311708398403 0.0008291466213528054 -0.0007084739227920522
          -0.0015839630058955834 0.00016297346911464672 -0.0023645999791295225 -0.0013285449058422216 0.0006209451496825835 -0.001088389648948862
          -0.0011092841783533203 0.0006763580931234969 -0.0008795537211927495 -0.0032748396250461553 -0.001091239978645575 -0.001531057170023331
          -0.0018324836864351823 -0.00005746672256279339 -0.0010823302508100596 -0.0008459029374972005 0.0008033686828223807 -0.0005316361463751917
          -0.0019548544262093515 -0.0022425477184455644 -0.0020734842965897116 -0.0010366336617106953 0.0003375364265565395 -0.00008434337660823132
          -0.002808078443790052 -0.004283656612065201 -0.004640963297289247 -0.001967466694393849 -0.000665177718286003 -0.0008928942115478122
          -0.004032649567923485 -0.006468567329854125 -0.008400711343343303 -0.0035666395218854063 -0.0010652735133493962 -0.002895847920482808
          -0.005561064391264026 -0.008688448973106944 -0.013007063683255993 -0.005565615736642826 -0.0015183010477901604 -0.00551274494180376
          -0.0015568946656596694 0.00011809251146210897 -0.004830228969677108 -0.0018000115894380997 0.0042391513928929925 -0.0012349096141921478
          -0.0010836156782687567 -0.000708627263817263 -0.001272513067720027 -0.0005945897886210361 -0.0005318305814299151 -0.00016454926443643103
          -0.0015717134881416683 -0.0005398650060790544 -0.00043630195893129553 -0.0012113770357657927 -0.0002548573296952128 -0.00016561715910867747
          -0.0008207411707594758 0.0003290075198751907 0.00010778040703840475 -0.00043359466746473174 0.00034282818139708127 0.0009767295876468296
          -0.01552137306867074 -0.013262411411067987 -0.013143697094282203 -0.011724119485489126 -0.012139885602385547 -0.011286466141989138
          -0.008336224851197116 -0.001310945428278032 -0.004420768607323211 0.001838892655323221 -0.0001551439410683031 -0.005156674901865443
          -0.007424401334729325 -0.0143080121560768 -0.0052567471647702035 -0.01658242443938107 -0.019907524626999518 -0.012078499445596691
          -0.010763007224991128 -0.0038814960930562137 -0.010418976491275878 -0.008678902551820578 -0.011316622826708311 -0.010428386152196545
          -0.006405171738109061 -0.0034216659484087586 -0.0021391038042590793 -0.008774764095626608 -0.003557535039846016 -0.005669743178778219
          -0.010727538879436338 -0.007214215518843048 -0.011300456037510287 -0.014633079606806376 -0.010314409837690164 -0.016398359981135258
          -0.008958476971899998 0.0014983889770547876 -0.0038143143150843883 0.0002707785384501449 -0.00010025336862540257 -0.0011541278734767957
          -0.00042061775253188216 -0.0009647229226530385 -0.0003361168379534263 -0.000635823308897443 -0.0006289019459586598 -0.0006190004939661264
          -0.00039859639244355094 -0.0003044692911160496 -0.0001252045950508318 -0.00023987751175269523 0.000410022401013066 0.0003304004407418404
          0.0003286455671300814 0.0010995492443086619 0.0012391346654041513 -0.0008743510555540013 -0.0008526219008082592 0.001234210910698863
          0.0005784302358549098 0.0012789054257922317 0.002745497887657322 -0.0009101068558514669 -0.0013993837168015943 0.00030092683050497726
          -0.00105540765147083 -0.0017514232766799864 -0.001564322723467626 -0.00007695310541855349 0.00021184428849707615 -0.0007498171575761603
        </DataArray>
        <DataArray type="Float64" Name="resid_y" format="ascii" RangeMin="-6.719885644566123" RangeMax="0.8530790733193866">
          -6.425233719797863e-7 0.0004393347002308416 -0.0005871482870635492 -0.00020601149386639817 0.0007338140885099625 0.0028958962534553177
          -0.002328986859422566 0.0003609182393025656 0.0012102687157226344 0.002524916040756024 0.000594107096163643 0.0008896751405826908
          -0.00004235568291947184 0.00020246524633116617 -0.0001531579211176727 0.0004945723121698485 -0.0009297290460945247 -0.0004341221929539188
          -0.00013868688498836976 0.0008952543490594713 -0.002263274333042343 -0.0010302134198303323 -0.0002099104324866062 -0.0012032691025432745
          0.0008853917791557808 -0.00008342910679035032 0.0013933827742451943 -0.000102905387094121 0.0009859943957460926 -0.0006794145972607579
          0.0023782490870249695 0.00003523674326666448 -0.001331441163178515 -0.0013558124395270932 0.0008300372252014188 0.0001381508242642715
          0.008228528335700577 0.0009532851960899619 0.0016523129335709874 0.0017196334700111393 0.017288272485038947 0.0011728747632250847
          -0.0009720595537827115 0.004029692935767909 0.008858600764572025 -0.0008230163860163398 -0.0028088979332717423 0.0025600323698490024
          -0.000036395617388274015 0.00003446291387258771 0.0003245460374605297 0.00007219297450424683 -0.0005994442034775449 -0.0005306852280120844
          0.00044643346682035623 -0.0018662534093806388 -0.0017535992176079124 -0.002104888190186796 -0.0017143747826250735 -0.001857800889881446
          -0.000008185207602214029 0.000607336811079752 -0.00040051272022383066 -0.00012161697574869512 0.000529957889085067 -0.0005736792549551027
          -0.0010005715569158385 0.0008500705741315839 0.0011624093911398355 -0.0009133859120084749 -0.00002927091953729144 0.000659225785867544
          -0.004475418489892066 -0.0021544206175354366 0.0006020280479241431 -0.0025381571298229155 -0.0006486984283221413 -0.001301342496846312
          -0.0026185191379486245 -0.0014177384618287991 -0.001990809097996795 -0.0009112018728723616 -0.00475845710444835 0.0011227229972415945
          -0.0019888260455915396 -0.00007864471331354983 0.000007701643992284127 -0.00002979743921059652 0.000498251640715125 0.000051373875793042645
          0.0008752598857946492 -0.0007176411199053961 -0.000001999856268655731 -0.0006537886168198892 0.0012068207044573925 -0.0057581309941830555
          -0.004299647921950631 -0.0030165026968154707 -0.004496549470688768 0.004975305386326304 0.005171633243552867 0.002590371183880655
          -0.0004064745976695562 0.0011732955631128805 -0.0018152640853528919 -0.00005149564392475936 -0.004461150378122683 0.0021770122161401395
          -0.000985134147683489 0.00011082399368833595 -0.0005074617623789524 -0.0000949038434203426 -0.0014915132659966412 -0.002026264134746561
          0.00044391824893471807 -0.0023588793753704165 -0.0033011071783989737 -0.00045742380083922327 -0.0009221681819122779 -0.0012336703112146435
          -0.0030482729403766284 -0.00472695727454652 0.0006089531971240347 0.0000020419768022791884 0.0016684659367666582 0.0016136794637342747
          -0.00012938122994152895 0.0004934280226339648 0.00017922871611965319 0.0010067412527575356 -0.0013555454299384387 -0.0004587139961441085
          -0.001409614407333254 -0.0003644362257088085 -0.007361799202442565 -0.0067387223924991885 -0.005662692343662609 -0.007349896861545996
          -0.0013414127150751798 0.0005650587158911174 0.0033719917293840787 -0.00025426455079750887 0.0007642221475154809 0.0016089115826919478
          -0.0031966123435615418 -0.002224955819239441 -0.003491596004839219 -0.0040822067627475644 0.0020793781340481265 0.00139682751187057
          -0.0029640548228655056 0.0007673518123578332 0.0007147073457215419 -0.00018806038112492707 -0.000630182711491234 -0.00014798628315575157
          -0.003895819344378826 -0.009172964963100078 -0.004873899515533766 -0.0033554926780717115 -0.002206961314474072 -0.0034076094931036957
          -0.0009897796486375426 -0.0001792242896283755 -0.0012896500972145244 -0.004980401759346054 -0.002949705379280694 -0.0037793776185396366
          0.0034197789912441684 0.0008496528923863794 -0.0013059417022126124 0.00043325438036469904 -0.0012060247176989627 0.0032325116966191864
          -0.0006210521765861524 -0.0006959985791128651 0.003060282726869007 -0.00027342590389305144 0.0034168590074116698 -0.0005789880803954844
          0.00294506698027535 -0.000023394308602903147 0.0015776230515774856 -0.007532666345674519 -0.006748541709484042 -0.01498458167446481
          -0.012643985456386144 -0.01285458388222262 -0.010765053862293886 0.0031576386664556506 0.004056589073317157 0.0012752005515500112
          -0.002522670361169266 -0.0011736045956965285 -0.0005257452321659473 0.00002647264769610816 -0.0018033998921884453 -0.0019557480177324876
          -0.004019952660607937 0.002295794669928408 -0.0012047663370818654 0.003928520467668478 -0.0025974047830529673 -0.0008253610080283941