<?xml version="1.0"?>
<VTKFile type="UnstructuredGrid" version="0.1" byte_order="LittleEndian" header_type="UInt32" compressor="vtkZLibDataCompressor">
  <UnstructuredGrid>
    <Piece NumberOfPoints="795" NumberOfCells="454">
      <PointData>
        <DataArray type="Int32" Name="libmesh_node_id" format="ascii" RangeMin="2220" RangeMax="4979">
          2220 2221 2222 2223 2224 2225
          2226 2227 2228 2229 2230 2231
          2388 2389 2390 2391 2392 2393
          2394 2395 2396 2397 2398 2399
          2402 2405 2408 2409 2410 2411
          2463 2464 2465 2466 2467 2468
          2469 2470 2471 2472 2473 2474
          2475 2476 2477 2478 2479 2480
          2499 2500 2501 2502 2503 2504
          2505 2506 2507 2508 2509 2510
          2511 2512 2513 2514 2515 2516
          2517 2518 2519 2520 2521 2522
          2613 2614 2616 2617 2618 2620
          2621 2622 2624 2652 2653 2654
          2655 2656 2657 2658 2659 2660
          2661 2662 2663 2697 2701 2705
          2721 2722 2723 2724 2725 2726
          2736 2737 2738 2739 2740 2741
          2742 2743 2744 2745 2746 2747
          2748 2749 2750 2751 2752 2753
          2754 2755 2756 2757 2758 2759
          2760 2761 2762 2763 2764 2765
          2778 2779 2780 2781 2782 2783
          2784 2785 2786 2862 2863 2864
          2865 2866 2867 2868 2869 2870
          2871 2872 2873 2922 2923 2924
          2925 2926 2927 2940 2941 2942
          2943 2944 2945 2946 2947 2948
          2958 2959 2960 2961 2962 2963
          2964 2965 2966 2967 2968 2969
          2992 2993 2996 2997 3000 3001
          3018 3019 3020 3021 3022 3023
          3036 3039 3040 3043 3044 3047
          3060 3061 3062 3063 3064 3065
          3066 3067 3068 3069 3070 3071
          3072 3073 3074 3075 3076 3077
          3180 3181 3182 3183 3184 3185
          3204 3205 3206 3207 3208 3209
          3240 3242 3244 3258 3260 3262
          3273 3274 3275 3276 3277 3278
          3279 3280 3281 3282 3283 3284
          3285 3286 3287 3288 3289 3290
          3291 3292 3293 3294 3295 3296
          3297 3298 3299 3348 3349 3350
          3351 3352 3353 3354 3355 3356
          3357 3358 3359 3360 3361 3362
          3363 3364 3365 3369 3370 3371
          3372 3373 3374 3399 3400 3401
          3402 3403 3404 3405 3406 3407
          3408 3409 3410 3411 3412 3413
          3414 3415 3416 3417 3418 3419
          3420 3421 3422 3462 3463 3464
          3486 3487 3488 3489 3490 3491
          3507 3508 3509 3510 3511 3512
          3527 3530 3533 3534 3535 3536
          3555 3556 3557 3558 3559 3560
          3561 3562 3563 3579 3580 3581
          3594 3595 3596 3597 3598 3599
          3603 3604 3605 3606 3607 3608
          3621 3622 3623 3624 3625 3626
          3627 3628 3629 3642 3643 3644
          3645 3646 3647 3648 3649 3650
          3651 3652 3653 3669 3670 3671
          3672 3673 3674 3675 3676 3677
          3678 3679 3680 3681 3682 3683
          3750 3751 3752 3753 3754 3755
          3756 3757 3758 3759 3760 3761
          3780 3781 3782 3783 3784 3785
          3909 3910 3911 3912 3913 3914
          3915 3916 3917 3918 3919 3920
          3951 3952 3953 3966 3967 3968
          3975 3976 3977 3978 3979 3980
          3981 3982 3983 3984 3985 3986
          3987 3988 3989 3990 3991 3992
          4008 4009 4010 4011 4012 4013
          4014 4015 4016 4017 4018 4019
          4020 4021 4022 4023 4024 4025
          4026 4027 4028 4029 4030 4031
          4041 4042 4043 4044 4045 4046
          4047 4048 4049 4050 4051 4052
          4068 4069 4070 4080 4081 4082
          4092 4093 4094 4095 4096 4097
          4098 4099 4100 4101 4102 4103
          4122 4123 4124 4125 4126 4127
          4146 4147 4148 4149 4150 4151
          4152 4153 4154 4155 4156 4157
          4158 4159 4160 4173 4174 4175
          4176 4177 4178 4179 4180 4181
          4182 4183 4184 4188 4189 4190
          4194 4195 4196 4197 4198 4199
          4200 4201 4202 4203 4204 4205
          4218 4219 4220 4221 4222 4223
          4230 4231 4232 4266 4267 4268
          4281 4282 4283 4299 4300 4301
          4305 4306 4307 4308 4309 4310
          4311 4312 4313 4335 4336 4337
          4341 4342 4343 4395 4396 4397
          4455 4456 4457 4473 4474 4475
          4476 4477 4478 4515 4516 4517
          4578 4579 4580 4581 4582 4583
          4614 4615 4616 4704 4705 4706
          4707 4708 4709 4710 4711 4712
          4713 4714 4715 4737 4738 4739
          4740 4741 4742 4821 4822 4823
          4842 4843 4844 4845 4846 4847
          4854 4855 4856 4857 4858 4859
          4860 4861 4862 4863 4864 4865
          4866 4867 4868 4875 4876 4877
          4878 4879 4880 4908 4909 4910
          4914 4915 4916 4932 4933 4934
          4941 4942 4943 4977 4978 4979
          2400 2401 2403 2404 2406 2407
          2615 2619 2623 2698 2699 2700
          2702 2703 2704 2706 2707 2708
          2991 2994 2995 2998 2999 3002
          2331 2330 2335 2334 2339 2338
          3241 3243 3245 3259 3186 3188
          3261 3189 3191 3263 3192 3194
          3448 3450 3452 3525 3526 3528
          3529 3531 3532 3537 3538 3539
          3540 3541 3542 3654 3657 3660
          2328 2332 2336 3852 3853 3854
          3993 3994 3995 4338 4339 4340
          3513 3514 3515 4458 4321 4459
          4324 4460 4327 4584 4585 4586
          4587 4588 4589 4791 4792 4793
          4794 4795 4796 4797 4798 4799
          4431 4432 4433 3495 3187 3499
          3190 3503 3193 3954 3957 3958
          3961 3962 3965 4899 4900 4901
          4968 4969 4970 4911 4912 4913
          3498 3502 3506 4902 4903 4904
          4434 4436 4438
        </DataArray>
        <DataArray type="Float64" Name="resid_x" format="ascii" RangeMin="-0.06255222596792187" RangeMax="0.2362118787046832">
          -0.01055347309841359 0.004213681601114239 0.007532117645572711 0.013793192145390876 -0.02234595698050601 0.008075258220789472
          0.010774926752867842 0.024077087574280398 -0.01224569271236664 0.003588100666985561 0.004922253819873212 0.013480986658128913
          0.0010152513410970343 -0.0034219509460662323 -0.002593319868202215 -0.0004271773379329602 0.00008649304938490587 -0.012901898070124318
          -0.007563600803780268 -0.008483962112991073 -0.018815600729648274 -0.020542467179842205 -0.01742554901709603 -0.02160481960815286
          -0.01846048692254776 -0.027611801070428044 -0.020798264053897952 -0.019687975128944935 -0.024264151563119896 -0.017868000335175438
          0.00012833781255194854 -0.003212733565406134 0.006167572278198752 0.001032534331495305 -0.003145070320927812 -0.007981203003579962
          -0.001975411513182257 -0.0010397861835116373 -0.0002958877290195616 -0.0007294328794158478 -0.004075568171727273 -0.006242278829777792
          -0.009200194066307787 -0.010147604436844926 -0.01787156753903596 -0.02422799542759746 -0.020513714108854053 -0.015017720094898435
          -0.0008697385279843317 -0.00017951727583742638 0.0005667681477037334 0.001325757373319636 -0.0044448818660196565 -0.002054412049937504
          -0.0050085876255803186 -0.001640157585299118 -0.011779299502965301 -0.01054642312498455 -0.009051134189296484 -0.006439513323499124
          -0.0003675349414673512 0.0007880992261659614 0.0014003010189833631 0.0009098908719780141 -0.003330842003647305 -0.005572226968904914
          -0.0015907809708135545 -0.0046950852659923825 -0.014608930851189417 -0.017470417587710507 -0.01374586727328797 -0.016319443847587323
          -0.001030449263131672 -0.008302137682499655 0.003984808414235097 -0.00467297318545512 -0.016781824908711496 -0.005148330921371347
          -0.018207506748858293 -0.01792946167108589 -0.02488294836168059 0.0002284873563942469 0.001820120876070419 0.0029965529274200153
          0.00413321906162345 -0.0015112338141047843 -0.002142379759877855 0.0033523603027011406 -0.002725820317125205 -0.019811462080071784
          -0.014217174320998005 -0.021781938396817635 -0.026033623369755787 -0.021678444510181194 -0.03205375397369936 -0.024971773001981834
          0.002220783780313429 0.0009174025800131602 0.005664844675028924 0.00344806048884827 -0.00042321156463764886 -0.005255106354773886
          -0.0030015218960706136 -0.007350409281191794 -0.01512531798439376 -0.006239557159658737 -0.012367808990115137 -0.03106362864508938
          -0.0031101231041779087 -0.008911545283388556 -0.01722227304704127 0.0016761467557735443 0.00037808092840929675 0.0003440651012196483
          0.00280740065277435 0.0014070133298349496 -0.0029721074645667755 -0.0038088186999107876 -0.00012973022521206579 -0.008366803176342863
          -0.0128794747214247 -0.017777193094819843 -0.01394702703059647 -0.0018673477539605798 -0.0028920953792752613 -0.0022218988080036084
          -0.00489879945053584 -0.001000022690364144 -0.005658726316203122 -0.009732221250266626 -0.0033605849469520166 -0.011328622848647996
          -0.004645491324524187 -0.004032077848207916 -0.0028504881030766427 -0.001484025227526331 -0.005859357582610247 -0.004686094729131618
          -0.0004961215908112493 -0.004045395947677832 -0.006482725897881458 -0.009666034160424442 -0.001075553762851289 -0.0006861530710631225
          -0.011966765766348475 -0.008759276619449974 -0.001312747240072909 -0.0024053152377943032 -0.01208323028448266 -0.01910211626622127
          -0.00964403924079793 -0.013593802499100277 -0.02709895948192176 0.0008147623819434457 -0.0017401489017236926 0.001709975806738484
          -0.007131756467231298 -0.021058705246923992 -0.025204172153981297 -0.010108505384672561 -0.005793583721041884 -0.013531971117815011
          -0.011079262812493162 -0.009927708889445164 -0.008262669774836695 -0.02309666466814786 -0.020968050747643296 -0.015244316975404182
          -0.002344854831143106 -0.0016203364580169577 -0.0031338554676469954 -0.013063981739744435 -0.0052761727460604035 -0.006721082666617306
          -0.006264269108873677 -0.012089325317722555 -0.009439420864755022 -0.012575592553598192 -0.01379766432968399 -0.01868235786593786
          -0.01268459839019176 -0.004453650367881146 -0.03312571811282705 -0.01031062866612853 -0.021744732925844446 -0.014803404437703893
          -0.0035804805674839457 -0.02085075048784457 -0.007302727113494889 -0.04010880925930316 -0.025283309192888126 -0.02428542188049576
          -0.015472710373705567 -0.01256192984806681 -0.018841938812681036 -0.01631340348575172 -0.013517286177682664 -0.013024808174598057
          -0.00787453822018147 -0.004676305346063003 -0.004285236938608605 -0.0022376133793124975 -0.01673456669065132 -0.009603883407645064
          0.0019348737809288252 0.006920587994547089 -0.0016444013554819392 0.00033538116221443204 0.005720876396009267 0.008279477997353846
          -0.007366375080239074 0.000027521814966569025 -0.007467769171531913 -0.004528936046659382 -0.026014383985690337 -0.02694658426809582
          -0.0073293969768064016 -0.009607183040532874 -0.00019616613154388451 -0.01674848493457226 -0.014886525211591728 -0.021918834381940755
          -0.00664595866701978 -0.01176810107966908 0.006265840786737531 -0.021147376999662626 -0.011587052912217732 -0.023160508757452902
          -0.00948612048704156 -0.007289047087672529 -0.00861747440403704 -0.013746959995439845 -0.028253561060088472 -0.02167020912573836
          -0.02181094381938209 -0.0145608125503216 -0.024033849263656926 -0.01566484806443391 -0.014475093208552892 -0.029204239110257824
          -0.01828028864878206 -0.005393271888729956 -0.01598243727137927 -0.017432161128694723 -0.01441634655134294 -0.011338860034675768
          -0.007170234386405627 -0.003271310875893718 -0.010931158804673657 -0.004168840844922417 0.0005593523869471539 -0.005118132756337435
          -0.009841605800755882 -0.012332078468804575 -0.01910798859734264 -0.008791832121155058 -0.007997437776367633 -0.0017861664153394352
          -0.0018591192562809056 -0.010355503373897124 -0.01743609369360577 -0.012647644584408368 -0.00025482844276236705 -0.00834562861775101
          -0.0008257141470648932 0.00058344708186997 -0.0066449849389362825 -0.008667191745113989 -0.0023198037897955714 0.00004289385583611249
          -0.013032763376957135 -0.009581273253036926 -0.01171320461513048 -0.013877324528204227 -0.02207260938712352 -0.019435888637850063
          -0.025578546908627153 -0.013343068456515894 -0.022386272788888384 -0.024443233730577774 -0.003413864932142907 -0.011978122474679331
          -0.033301169698218835 -0.03429442790344872 -0.02565040980599953 -0.02510719770849157 -0.020031322760637238 -0.03546445597115433
          -0.030852344819758848 -0.01640117336021696 -0.0179119686499547 -0.005006408142278929 -0.012198151280935932 0.00022904179260763158
          -0.006940000739157348 -0.00484041596005369 -0.010748101200926286 -0.011541396806247661 -0.013401341964774716 -0.002298261780468991
          -0.00008764865496813101 -0.017368379600896766 -0.0158329686568095 -0.005953689192145006 -0.005708259114202363 -0.0015191195747439323
          -0.0036632711333481893 -0.005180715090097543 -0.008430119748346954 -0.01353017388846589 -0.005335651322944779 -0.019114576223913105
          -0.013132116844331243 -0.008782716216087172 -0.005763966072726667 0.0010058928430860536 -0.006836712038976067 0.0011795107328471666
          -0.008370601679996703 -0.004701506001161704 -0.006250986979629558 -0.002684556595546006 -0.008551786565334563 -0.00289894893649123
          -0.014738201966166375 -0.024117873532631506 -0.022385432330011223 -0.024958375022530177 -0.011866507138944549 -0.024768603600410444
          -0.010401534765894338 -0.0037774207992242737 -0.009097718977727487 -0.0026742084150033207 -0.008901291106009346 -0.002137863193500067
          -0.014080411137873838 -0.002738633770159815 -0.014794817706239805 -0.019194900812517623 -0.011978196980269473 -0.013884828579889152
          -0.03222389270183612 -0.035588383501425014 0.0005467197660653511 -0.007267746945203157 -0.01777339752178264 -0.01802628906904946
          -0.01788049020299054 -0.007922324640548872 -0.0009176605281635553 -0.0011702392949883844 -0.015189079025803576 -0.017356958272154444
          -0.004166821622022532 -0.008661571657385458 -0.007120176044843163 -0.0062062724794333946 -0.010253906217074338 -0.006806398779010792
          -0.0043536788196298914 -0.00703238647235338 -0.004934359711038283 -0.004918406424784472 0.0006349768612055051 -0.003254988293901917
          -0.011107164047178486 -0.0025127297856935016 -0.0005749766766904862 -0.0023887188524343017 -0.01387592745280486 -0.01941499737040875
          -0.011833483260257793 -0.015531757895904441 -0.02700814057144907 0.00009565252162069271 0.0001610997403709291 -0.0032409589405277828
          0.0025719470145455503 -0.002674755244049365 0.0003555418762095641 -0.014402203800571556 -0.0028167590541245957 -0.021365376348574827
          -0.025482695919740728 -0.025651838341725686 -0.02295769387154767 -0.026579325268219378 -0.0019093610432534547 -0.018685926075860948
          -0.0063323543537188165 -0.00825089944904267 -0.0018812145746291975 -0.004817256723796071 -0.02136830799631184 -0.020403150101282463
          -0.008663929027728834 -0.012329573062367594 -0.013953462852827059 -0.025538395493938992 -0.019922049911774486 -0.01745613803215207
          -0.005671247124522161 -0.009798672609554249 -0.0006285285482827696 -0.0035798534416729144 -0.0200414570208709 -0.02352208546319723
          -0.009940297983476398 -0.020670641094692854 -0.00020822882939519616 -0.010510172764746528 -0.019246255012273394 -0.02353883568081816
          -0.007342803228929995 -0.005348089702471803 -0.0005013408100227323 -0.0009818507686798483 -0.018834166061307833 -0.015330940547577665
          -0.030275623528488893 -0.009293601373568272 -0.02021695124532652 -0.026265487615150906 -0.011482573852396705 -0.02560957195952085
          -0.0011508002323337152 -0.008581019943099122 -0.011704087501247074 -0.007846676445023348 -0.00031903110304076776 -0.010276061982586349
          -0.01112028899719153 -0.004761349036227713 -0.016987939176044797 -0.011931353423040747 -0.019949444718200482 -0.020017677178577387
          -0.019671127241120523 -0.00921186387595263 -0.03057563389007978 -0.0016504461471917864 -0.023843042307403195 -0.01245208121382202
          -0.01787484637200798 -0.0096688949267687 -0.0003956996291272219 -0.012479336821224152 -0.03821027206727301 -0.022167330469379465
          -0.0008688404909431569 -0.026031593570746026 -0.023954692794267984 -0.020007140796840517 -0.009034637964759895 -0.01841963283005299
          -0.020943129147278583 -0.014113471829040769 -0.015455320659324201 -0.02457241761905493 -0.022940100442356837 -0.019676919771519863
          -0.019463699514290944 -0.014303755013072461 -0.014233462756764403 -0.02047520937207148 -0.007991680789618538 -0.03007062065576971
          -0.017454709501646626 -0.014821285474410084 -0.009397667588637582 -0.006157772240264148 -0.011238084061039544 -0.008117140100504072
          -0.025565335031717318 -0.017674140572289332 -0.008109443565286867 -0.006450739840747843 -0.025953015901476917 -0.018521371331628345
          -0.018280210232934024 -0.0028222734551288653 -0.021114767637550713 -0.03785724870577578 -0.008150569252880047 -0.014610102400871128
          -0.013977301926291652 -0.008333020318463724 -0.004090719961070022 -0.00669519204002178 -0.014139405255373383 -0.009289977864373355
          -0.02142722672770958 -0.02077762869067712 -0.010393759881271336 -0.029620888415425206 -0.014788634688271962 -0.020019562623382114
          -0.017339020439561814 -0.014201845877392039 -0.026019681714387843 -0.02400092801351228 -0.018719183316829202 -0.017527864601649235
          -0.011284103536742585 -0.007907054457509943 -0.0066035394026418 -0.01869728270660076 -0.005844725294578801 -0.01257589273545534
          -0.014868914840324265 -0.010612330831031969 -0.009404131773620428 -0.0194092933211909 -0.017195096040198976 -0.014851392229833671
          -0.011242326043723772 -0.01569893826664792 -0.016552789137016966 -0.016951378122509908 -0.012452870176573594 -0.00971716064389394
          -0.00942590947269073 -0.017176065929469964 -0.016694476515398016 -0.006897635961838233 -0.006096005530036308 0.0008026837591224023
          -0.008044013742527056 -0.004604564815812395 -0.005369589291059462 -0.01634408802302012 -0.01613576368910863 -0.018270651543050853
          0.027929805712018307 0.013321118505853491 0.018002056480701967 0.012084845995469884 0.03626229054418184 0.01748458607268244
          0.030028045269425263 0.0004749943395605527 0.015448516182829497 -0.01193194679622156 0.003959897673875723 -0.0034863582592832287
          0.017107637924579144 -0.00616823510714859 0.03890389887554946 0.0025923876858700012 0.02228477724091782 0.007104845161231665
          -0.006326190786690056 -0.0007359763041954182 -0.004572268821879 -0.0039010959373246834 -0.007887994965960488 -0.005698399192234582
          -0.011355766353527308 -0.0009553839872822323 -0.017357489977088747 -0.01614204541253894 -0.01080600421366995 -0.0196856634015532
          -0.021330705400366856 -0.007752931415167197 -0.018382873623694618 -0.011431057394967858 -0.009256442528167597 -0.004102282945408042
          -0.00517687114593901 -0.011492145111875018 -0.008391913556113462 -0.016435337056952548 -0.005614926793601427 -0.011219598061932068
          -0.01383235257708293 -0.012164730500052734 -0.000610010513146797 -0.023078688841188466 -0.030581703753085776 -0.02334106036698813
          -0.022752262978040783 -0.014718379482658861 -0.01347723502779985 -0.026895404792178113 -0.021980153449161932 -0.03356405339469326
          -0.02644935966717643 -0.02635267944738917 -0.023469662163360105 -0.030761179975647757 -0.007530135933313087 -0.013976379996002208
          -0.013429129263494488 -0.0059127235256744015 -0.01482399473989826 -0.013012630853728169 -0.005047210080311615 -0.005497773201742717
          -0.013327766141915554 0.0031183956607465646 -0.007064981155799899 -0.01914406770000543 -0.023826853737303644 -0.009974627614337983
          -0.03200682845811009 -0.04099147631897537 -0.017181213360641934 -0.01099191639370467 0.003957137901931418 -0.012809030026174284
          0.012670143247821564 -0.025476504309313697 -0.006071139808645931 -0.004189920815215853 0.002538545942143422 -0.007399535024519288
          0.005287601484649684 -0.003606078601458229 0.0021130536048374893 -0.005063152717090347 -0.015415760577917048 -0.02428623641098504
          -0.0208197496867637 -0.025131374043515287 -0.01706451202752568 -0.022594955927465854 -0.038403051520535136 -0.022280551958550276
          -0.021545900755668868 -0.00845726044358841 -0.03681684369094018 -0.0001380749908346246 -0.0261101264575494 -0.0030087458981684634
          0.01186701281870528 0.0013190235944415818 0.027376067438009244 0.021699152621435847 0.0029926720733337575 0.05938853190584492
          0.011488266898078692 0.0010627001461758212 0.022012092887248258 -0.001712163035609393 -0.009674285587958131 -0.006248408181141141
          -0.003691492511994632 -0.01067025384982001 -0.013123210793344775 -0.02009159691979212 -0.015201685612907134 -0.017341098709819036
          -0.001695779496792671 -0.0028844075934264524 -0.0005821575652742439 0.005344764360708076 0.010989347470268918 0.00532061598354705
          -0.026185106810519 -0.03126777758833921 -0.02084131969981584 -0.012252021610483332 -0.001027353258107322 -0.00671420878097706
          -0.017266434699644506 -0.0030886619696115503 -0.023895688684095973 -0.004774209888845249 -0.020443591278317186 -0.01141347213278543
          -0.012309828365374642 -0.014230518621149102 -0.028120868738903404 -0.010039527015987204 -0.011529602821585883 -0.005096948622650643
          -0.0198234230304557 -0.007952329788736279 -0.0014631940644109775 -0.0199457862436212 -0.016903275204473545 -0.010696984617643679
          -0.0036603169033142535 -0.0016838767519153919 -0.007512255871812812 -0.004917915980342968 -0.008932111931384767 -0.0033361928805568652
          -0.009158503852100486 0.0024797379439280842 -0.025378609241496264 -0.00046358288759762445 -0.022753612994983463 -0.016677000499128125
          -0.006478179024558273 -0.014462592775796423 -0.0025127877844832724 -0.030053853631411442 -0.026891986391119893 -0.03328416508609067
          -0.03221181954339691 -0.02459977300574323 -0.059820796898314654 -0.019938399086393943 -0.030702343339335414 -0.030339071176060273
          -0.01507974806023471 -0.01419624993722124 -0.024885100409814065 -0.011768694133003521 -0.0157712628365676 -0.02623333842580422
          -0.02292756709344701 -0.0216361886952825 -0.017634664453712645 -0.02691338855600911 -0.023773657253410185 -0.030909575536913536
          -0.019392829763582142 -0.021394956622243555 -0.016792178822787385 -0.005750883020272823 -0.013698919141598154 -0.016102509631696016
          -0.010123782950283378 -0.021402066972356693 -0.01892918107697561 0.002711930799197404 0.004496293957418018 0.0005410146617563782
          -0.011990823035572973 -0.011706104909730897 -0.015357047508540944 -0.005054412338752812 -0.00591962272744162 -0.01444797678547527
          -0.028588387822966688 -0.02476914472970293 -0.022819787371959777 -0.017563886319480027 -0.013602863408870292 -0.03495180122707531
          -0.029493995577574594 -0.02789173022541913 -0.02673487855212109 -0.008291145248954024 -0.005335016366706746 -0.013688389081021768
          -0.010246246952185345 -0.004067828354942904 -0.002526142398242115 -0.01096122513492137 -0.009329368573546049 -0.0029118474894911373
          0.08882400403614366 0.1174886592864155 0.1765957374169833 0.2362118787046832 0.08132419586421857 0.13841149355233107
          -0.016159754594733844 -0.017006518652283198 -0.012596461136526571 -0.010059981552339892 -0.038215867824869854 -0.025940683688379096
          -0.06255222596792187 -0.012913389446460144 -0.033537706440181836 -0.014958349193179288 -0.016983087583721357 -0.031864705878092536
          -0.024685176939698295 -0.02172777329600173 -0.01350782988314414 -0.006894784419392508 0.0008031208029848358 0.013782011399491978
          -0.02019505950167577 -0.028261542852507482 -0.01839732261939364 -0.014286216204789426 -0.016306186957280033 -0.008866380489553904
          -0.012710270832924309 -0.033827667988880705 -0.022619449766610344 -0.022788180093925803 -0.029647984730242882 -0.019153649253858873
          -0.015907999718974608 -0.03169957731484985 -0.02244154984392921
        </DataArray>
        <DataArray type="Float64" Name="resid_y" format="ascii" RangeMin="-0.1073124220776961" RangeMax="0.1802573718264062">
          0.011643097778509102 0.008447568251990653 0.0025929347308649917 -0.009975886632256084 0.021704220954375734 0.017322726780076125
          0.008396503809867215 -0.020135460687150275 0.00999853886015676 0.011245220244105854 0.006272472762111056 -0.014858670522373663
          0.000919600341326432 0.004061056817451475 0.007041838078054585 0.0070690336323574465 0.00188388687896468 0.009093782097110231
          0.017441402794051875 0.02260557610424202 0.00955217203748937 0.009802506007179634 0.014606329555686859 0.019604183794661167
          0.01233924769442385 0.02330067756204196 0.014952986109183775 0.01428748515858752 0.01854494547212404 0.010251014824484428
          0.004454272317270094 0.000151544478112553 0.0034317268281191388 -0.0037592686753357835 0.007166203105198422 0.005370484334673603
          0.00436939754841072 0.0026331922916901507 -0.0001900143793504283 -0.0011572042894344874 0.010595248502835148 0.007912560941182409
          0.005880347332617594 0.004146020294533995 0.016977064315145105 0.017165551257233333 0.012451030938615035 0.010212113221833439
          -0.0004800540486680979 -0.0010350962965435945 0.001186434226670488 0.002580954358117768 0.0022146322773795163 0.0016045448801234458
          0.005348717683973131 0.008561600134211672 0.009093519805850991 0.00858239889472763 0.007444148236397746 0.010884331977619621
          -0.00018089307991550618 -0.0003213183295656258 -0.0009916046048498994 -0.001229339219361747 0.0021708728837029068 0.0027203646245295976
          0.003180720211643173 0.0060236181201738515 0.009759164455967195 0.011807192501326114 0.011570977532620097 0.01339773401127109
          0.007114513111738836 0.006478484224530068 0.007751936551266755 0.014043060936228174 0.015962511521661088 0.01616710767954566
          0.012718200758629748 0.014396659953645918 0.016367611577036048 -0.0006822251120578715 -0.0012672192796950449 -0.002014274396614557
          -0.0015575328086302187 0.0000764732486631392 -0.0012326907969976986 -0.0026375736579414832 0.0039310746115142625 0.010386194362360046
          0.005943805722399248 0.012767956883332487 0.015624553851443762 0.01442116612496075 0.02771554415150984 0.01875680750399089
          0.005786148132083252 0.003383269539371875 0.010160136967548777 0.004984359981534708 0.007707139531380906 0.008125564627870674
          0.0005825954848712456 0.00887455969455671 -0.001259722030800381 -0.0010385920810679211 0.018760614724312372 -0.0030219362026796953
          0.0008427401057771039 0.01238100565595322 -0.000778781936037809 0.003608919749862792 0.0017618617696711879 0.0009019981511758021
          0.0020267446185294052 0.00847507420018613 0.008445742144818143 0.003505449637271077 0.008749808747092067 0.011860606914287385
          0.013569930993531161 0.014292797136646537 0.01412925509765739 0.002919465701188343 0.0036121960531809993 0.007118069836537275
          0.0039678467254854015 0.006519144581194347 0.006900700727620043 0.007221013818867444 0.0073298224834937725 0.00832838794808613
          0.006752878704822524 -0.005250975928919592 -0.0003810846932398998 0.007484562457409409 -0.012562451632543046 -0.00164956613753596
          0.005960715109951824 -0.004298322175496191 0.0051052150039679264 0.017599115323841175 0.0040341813454885175 -0.0009827650360469675
          0.007832782667512694 0.0127217566905021 0.003308802824117954 -0.0007055773850630394 0.009852779203014833 0.013571703509113058
          0.006776802036038254 0.008875525901831636 0.019282587678592793 0.005900609696418077 0.009661898330091845 0.0029498946051829747
          0.004236856690674223 0.013469213531334484 0.0117631618042138 0.010800266154067317 0.0016109260259749014 0.000382517525214357
          0.007251519928027889 -0.003156864590000419 -0.0006505894146821289 0.014066387627209187 0.0074221264680302546 0.010523287286200042
          -0.003199136579057099 0.00035180866701484126 0.0010490697722001507 0.005317407619914838 -0.005831455845439593 0.005219499224093621
          0.00270977060185415 0.008169533417203556 0.005480357139788894 0.01076145005609791 0.009541274707953212 0.014523965359909519
          0.0174908795149267 0.0077221530964151075 0.04117008109686443 0.021087053064816536 0.02177470206836396 0.01914106156010953
          -0.002930153261000046 0.013033749307906947 -0.005674851756076377 0.02572019750930703 -0.0048146558139864765 0.009921769916531
          0.01147736890393071 0.00507251838644017 0.004377981760988463 0.0036628770879110553 0.005056579207134065 0.0062804711492509355
          0.0038011494566391746 0.006837644294221033 0.001553169456157591 0.002263233400604553 0.006442475143113302 0.012918527422494636
          -0.0026108209960347684 -0.0026695316119495494 0.002023170086746101 0.005118164767270249 -0.0019342111434108022 -0.0011088587019544016
          0.011887587429259449 0.0016128300979146304 0.008914600268363606 -0.00292005215927299 0.013597315352672612 0.011804743317491095
          0.013033769256964728 0.004513562489399025 0.011110675874760861 -0.0028824151623772325 0.013815046884763538 0.004907545933028504
          0.008368234622232226 0.001233097314900111 -0.0010462996018621301 -0.009206935380506388 0.00933543918454921 0.0022697405800633542
          -0.003942882230181452 -0.004851417499969181 0.008185400385607965 -0.00007544224497485486 -0.00042082847382535205 0.004174733292423627