<?xml version="1.0"?>
<VTKFile type="UnstructuredGrid" version="0.1" byte_order="LittleEndian" header_type="UInt32" compressor="vtkZLibDataCompressor">
  <UnstructuredGrid>
    <Piece NumberOfPoints="783" NumberOfCells="456">
      <PointData>
        <DataArray type="Int32" Name="libmesh_node_id" format="ascii" RangeMin="1863" RangeMax="4982">
          1863 1864 1865 1887 1888 1889
          1890 1891 1892 1899 1900 1901
          1902 1903 1904 1905 1906 1907
          1908 1909 1910 1911 1912 1913
          1914 1915 1916 1917 1918 1919
          1926 1927 1928 1929 1930 1931
          1932 1933 1934 1935 1936 1937
          1938 1939 1940 1941 1942 1943
          1944 1945 1946 1950 1951 1952
          1953 1954 1955 1956 1957 1958
          1959 1960 1961 1962 1963 1964
          1965 1966 1967 1968 1969 1970
          1971 1972 1973 1977 1978 1979
          1980 1981 1982 1983 1984 1985
          1986 1987 1988 1989 1990 1991
          1992 1993 1994 1995 1996 1997
          1998 1999 2000 2004 2005 2006
          2007 2008 2009 2010 2011 2012
          2013 2014 2015 2016 2017 2018
          2019 2020 2021 2022 2023 2024
          2025 2026 2027 2031 2032 2033
          2034 2035 2036 2037 2038 2039
          2040 2041 2042 2043 2044 2045
          2046 2047 2048 2049 2050 2051
          2052 2053 2054 2058 2059 2060
          2061 2062 2063 2064 2065 2066
          2067 2068 2069 2070 2071 2072
          2073 2074 2075 2076 2077 2078
          2079 2080 2081 2082 2083 2084
          2085 2086 2087 2088 2089 2090
          2091 2092 2093 2094 2095 2096
          2097 2098 2099 2100 2101 2102
          2103 2104 2105 2106 2107 2108
          2109 2110 2111 2118 2119 2120
          2121 2122 2123 2136 2137 2138
          2139 2140 2141 2142 2143 2144
          2145 2146 2147 2154 2155 2156
          2157 2158 2159 2160 2161 2162
          2163 2165 2167 2169 2170 2171
          2172 2173 2174 2175 2176 2177
          2178 2179 2180 2181 2182 2183
          2209 2213 2217 2232 2233 2234
          2235 2236 2237 2238 2239 2240
          2241 2242 2243 2245 2247 2249
          2310 2311 2312 2313 2314 2315
          2364 2365 2366 2367 2368 2369
          2370 2371 2372 2373 2374 2375
          2574 2575 2576 2577 2578 2579
          2586 2587 2588 2589 2590 2591
          2634 2635 2636 2637 2638 2639
          2640 2641 2642 2673 2674 2675
          2676 2677 2678 2679 2680 2681
          2682 2683 2684 2727 2728 2729
          2730 2731 2732 2733 2734 2735
          2826 2827 2828 2829 2830 2831
          2832 2833 2834 2835 2836 2837
          2874 2875 2876 2877 2878 2879
          2901 2902 2903 2904 2905 2906
          2907 2908 2909 2910 2911 2912
          3003 3004 3005 3006 3007 3008
          3009 3010 3011 3012 3013 3014
          3015 3016 3017 3024 3025 3026
          3027 3028 3029 3030 3031 3032
          3033 3034 3035 3037 3038 3041
          3042 3045 3046 3048 3049 3050
          3051 3052 3053 3105 3106 3107
          3108 3109 3110 3168 3169 3170
          3171 3172 3173 3174 3175 3176
          3177 3178 3179 3228 3229 3230
          3231 3232 3233 3234 3235 3236
          3237 3238 3239 3246 3247 3248
          3249 3250 3251 3264 3265 3266
          3267 3268 3269 3375 3376 3377
          3393 3394 3395 3396 3397 3398
          3423 3424 3425 3426 3427 3428
          3429 3430 3431 3432 3433 3434
          3441 3442 3443 3444 3445 3446
          3465 3466 3467 3468 3469 3470
          3471 3472 3473 3474 3475 3476
          3477 3478 3479 3480 3481 3482
          3516 3517 3518 3546 3547 3548
          3549 3550 3551 3552 3553 3554
          3573 3574 3575 3576 3577 3578
          3600 3601 3602 3663 3664 3665
          3666 3667 3668 3705 3706 3707
          3723 3724 3725 3726 3727 3728
          3729 3730 3731 3732 3733 3734
          3789 3790 3791 3810 3811 3812
          3813 3814 3815 3819 3820 3821
          3840 3841 3842 3843 3844 3845
          3864 3865 3866 3891 3892 3893
          3894 3895 3896 3897 3898 3899
          3933 3934 3935 3936 3937 3938
          3945 3946 3947 3948 3949 3950
          3996 3997 3998 3999 4000 4001
          4002 4003 4004 4005 4006 4007
          4038 4039 4040 4071 4072 4073
          4074 4075 4076 4083 4084 4085
          4110 4111 4112 4113 4114 4115
          4131 4132 4133 4134 4135 4136
          4137 4138 4139 4140 4141 4142
          4143 4144 4145 4239 4240 4241
          4242 4243 4244 4245 4246 4247
          4248 4249 4250 4329 4330 4331
          4332 4333 4334 4356 4357 4358
          4359 4360 4361 4362 4363 4364
          4392 4393 4394 4419 4420 4421
          4446 4447 4448 4449 4450 4451
          4467 4468 4469 4479 4480 4481
          4503 4504 4505 4512 4513 4514
          4524 4525 4526 4542 4543 4544
          4548 4549 4550 4563 4564 4565
          4575 4576 4577 4596 4597 4598
          4632 4633 4634 4674 4675 4676
          4686 4687 4688 4755 4756 4757
          4758 4759 4760 4776 4777 4778
          4824 4825 4826 4827 4828 4829
          4839 4840 4841 4959 4960 4961
          4980 4981 4982 3036 3039 3040
          3043 3044 3047 3609 3693 3610
          3613 3695 3614 3617 3697 3618
          4021 4024 4027 4020 4023 4026
          4009 4008 4013 4012 4017 4016
          3671 4188 3675 4189 3679 4190
          2402 2409 2405 2410 2408 2411
          2389 4395 2393 4396 2397 4397
          2400 2403 2406 3939 4287 3941
          4288 3943 4289 3694 3696 3698
          4599 4380 4600 4384 4601 4388
          4830 4831 4832 4022 4025 4028
          4656 4657 4658
        </DataArray>
        <DataArray type="Float64" Name="resid_x" format="ascii" RangeMin="-0.13025346985566655" RangeMax="0.16425005902652856">
          -0.006180935581251212 -0.010837238026244478 -0.001128958759561982 -0.0032465229907847615 -0.008364144837088361 -0.0026962966696171264
          0.0001770092258226441 -0.0021607744627250014 -0.0006219230901267636 -0.0034861359742679454 -0.008326193965277895 -0.0032490673806586656
          -0.0011751648220315047 -0.002976051315240813 0.0006382817810619557 -0.004395647803468794 -0.0046419297065312115 0.00033862525147121403
          -0.004647547789383477 -0.004416894693477502 0.0007076433899277923 -0.007436464312150282 -0.003946843912079778 0.0013031437320738526
          -0.0006482454062091136 -0.00473306137582874 -0.002906929748429654 0.06561800555935182 0.13648307523457692 0.07277381150600615
          -0.0015393360541970935 -0.005364465641068961 -0.00009944065520350875 0.00019156063941139223 0.0003736444444637499 0.0032267754833092965
          -0.003017785782174265 -0.0018007629076617349 0.0014579272463146609 -0.0030249666021511246 -0.0011990259733387632 0.0009852676169685992
          -0.004587665709379962 -0.0017532736844652064 0.000341642675033782 -0.003683675801629427 -0.0011503906250149853 -0.0017160584473057128
          0.021428640378148067 0.05567598304789012 0.03216783198833184 -0.005520583352636166 -0.007321723347036624 0.002066950075168883
          -0.0011746564365164858 -0.0025128567094938603 0.002532958994595269 -0.0017923396023791227 -0.001963602054440905 0.0022757170678984195
          -0.0048520638729048216 -0.00316290338464853 0.00043533568409515055 -0.004232168567458672 -0.0012557155716175217 -0.00008767789129482395
          -0.0039695482750286 -0.00034218537135899396 -0.0012258667741900098 -0.003885193276264687 -0.0007334621796530882 -0.0023547985657561554
          0.0033885993280926563 0.02072701165870061 0.013057557942633746 -0.003965403358165531 -0.007978759578676886 0.0031911718002675116
          -0.0010315817726649357 0.00016913920685457384 0.005630265109124011 -0.004762935553350722 -0.0035285308623143052 0.0014612696599334285
          -0.0054427725749368605 -0.003648956398743408 -0.00047778677127485736 -0.004313416470873577 -0.001255281980564682 -0.0011421921665775159
          -0.004106096452226815 -0.0008074749648026014 -0.002439946711908725 -0.0044295590485194936 -0.001628872353978572 -0.0035967279228508175
          -0.0012563465062083168 0.005812099613749844 0.000875878994517798 -0.004897326643842348 -0.009635452101004915 0.0033462068528518074
          -0.001168392853046818 0.000285174073895611 0.005430648414531447 -0.0046241466519640895 -0.0021501163455308614 0.0008648529564787566
          -0.004042705655793455 -0.00021181454345686745 -0.0001574883559847251 -0.004753795081696488 -0.002314808130249091 -0.003127166906713441
          -0.004325023680178397 -0.0012514860371153347 -0.0040294762102757176 -0.004637188230315559 -0.0021880385776764655 -0.00418775181410691
          -0.003269924849456096 -0.0005832049625684732 -0.004684455248983976 -0.006242183232282095 -0.012323089071811566 0.001193314202865281
          -0.0019652900307685073 -0.001337554423762377 0.002318684520526304 -0.0047892358600254425 -0.0022536615926371795 -0.0016041292909534377
          -0.004141312849850642 -0.0002913415442318268 -0.001829981858831431 -0.002399908448933452 0.002916952051982058 -0.0012931102816224893
          -0.0059143307219526875 -0.004659954276099221 -0.006606142980499108 -0.004668906083687752 -0.002235834460917019 -0.005064523696677092
          -0.0035002827776873247 -0.0005542426869471484 -0.0045130611943475785 -0.006669585163256997 -0.012654317980915764 -0.003634492985259641
          -0.002187610742240498 -0.0014841244809686849 -0.0009089741745431645 -0.002128330801591305 0.003358675941338929 -0.00026940038314329784
          0.00009383560332754115 0.008852770262423704 0.0023389433889065003 -0.004348541916549653 -0.0019262479051436188 -0.0044226948152426004
          -0.010399151471266688 -0.014999189300787918 -0.011942333569409769 -0.004540530456957903 -0.0023797826342937256 -0.005228628794450074
          -0.003865136894607879 -0.0009889716055697662 -0.005190351068507404 -0.0037214419121531783 -0.0019547422622641086 0.00006912004815262662
          -0.0005336484711566669 -0.005411071563251824 -0.003275013125738191 -0.0020381644585474312 -0.003941255580557357 -0.006167427171870354
          -0.005512982675220268 -0.004101013470929615 -0.005030495839050797 0.011867791032428077 -0.000635783701187248 -0.0018906593076168932
          -0.0010719727632104714 0.029678249543860336 -0.0018978530414830302 -0.005925746688202338 -0.0013335452681344506 0.0142946008103082
          -0.005470331049997168 -0.006543467133577785 -0.0036833984521820184 -0.013381493304077896 -0.0027678422931476376 -0.024646632147309333
          -0.0022425671321308904 -0.01706427650929898 -0.004775578281098092 -0.006456480707706103 -0.012621086905066026 -0.00369031741285486
          -0.01560063163673675 -0.004293977370638746 -0.0103380406486413 -0.006490527751071173 -0.002119536286332265 -0.006524899942414564
          -0.0018019846900004625 -0.0065541762603773535 -0.0033284620452725504 -0.0091003472261324 -0.01055931134387178 -0.013599546471182222
          -0.016063555967706478 -0.006837011450416597 -0.008760634597967165 -0.003144888563357817 -0.0026761767215555954 -0.004211449899595099
          -0.0037854652204883515 -0.003362449746135532 -0.004611524635013187 -0.0053887255936917455 -0.0029123562780624113 -0.005868184757935602
          -0.005902977107533625 -0.010154649134994642 -0.006852726041951529 -0.004803574549246736 -0.00647937148516653 -0.004364781028629583
          -0.00462947135434888 -0.002576958764933579 -0.00672538741564388 -0.0020986530024069694 -0.004740865475702183 -0.0027563418705165432
          -0.004843434422407533 -0.003182222795633294 -0.002834648047279398 -0.0032581623910195034 -0.0017174477614432249 -0.004002401102544795
          0.0032391603917041323 0.01110970930770705 0.007692440417438107 -0.0038756287655310473 -0.003719962927790199 -0.00009436201339152461
          0.0004060284662763536 -0.004274996702282152 -0.00335337069201902 -0.0005311655660431569 0.0007112870891790024 -0.007648157890800977
          -0.006326574029793086 -0.0030522526426066676 -0.0031559112084815766 -0.007853537171052416 -0.012667125628270881 -0.0065069002829876155
          -0.00003671626233181513 -0.006505568292962671 0.0011075313209971682 -0.006253425940252022 -0.004623630970234327 -0.008273679823964208
          -0.0157811582416576 0.0006784199200144947 -0.06255406449740875 0.018609332248568755 -0.03302566352096914 -0.0026125656411499776
          -0.13025346985566655 0.0388352105288976 -0.020453499438453093 -0.004859229984717217 -0.07037688652788177 0.01835670653726229
          -0.00113362049395338 -0.0038602546674657567 -0.00006147711492321406 -0.005787920324768603 -0.0031579844765001752 -0.0074414424589575034
          0.03696922319543816 -0.026391347564498346 0.08102425162704385 -0.050605542574403195 0.04043378231644823 -0.03180216007040482
          -0.0017270926929198183 -0.0013601601462518431 -0.0039204039082125774 -0.00208401821438553 -0.0010854643814921516 -0.0057770524838680615
          -0.004429035748284793 -0.006762485351980985 -0.005922187731531636 0.007063508652124018 -0.03148286748426177 0.0014179196321104648
          -0.06024741303327996 0.014651944956322716 -0.07217670777519647 0.0005132423501468253 -0.12967040247346073 0.0036356247550024534
          -0.047081781026954594 -0.007624586309542103 -0.0769604568527349 0.0011610134135258132 -0.006510494806059697 -0.0005921714645626963
          -0.0012995181890212981 -0.019759236470290542 -0.0015929363086986115 -0.005283813871035603 -0.01607254634314481 -0.003634343220321412
          0.020271585698895755 -0.03731462569454891 -0.01946400391658054 0.017249313080760054 0.04227327730396091 -0.07897805383392598
          -0.044693564279154496 0.0375732787468519 0.0193668642834659 -0.043987211682649185 -0.030524804138222117 0.018103795292145897
          -0.008041620378273606 -0.0022666975366405495 -0.014742987850512534 -0.005396143402768949 -0.010992071114606539 -0.009432755151373762
          -0.0004901244036421559 -0.062255666397264875 0.00001038774684580801 0.00045107745905603736 -0.0017235442048164629 -0.12789103958557568
          -0.0027710895530903557 -0.003429142824446174 -0.007028503517433116 -0.07359770120094922 -0.010465747339863718 -0.010166979162727685
          -0.004772993420944616 -0.014879868413683273 0.0012099650561987474 -0.006508776366733304 -0.03033281709171831 0.00037925903851299125
          -0.009112592191524715 -0.02238972513789239 -0.003362766914432491 -0.051376258461480084 0.02581709257536957 -0.1003320665452998
          0.05870283998001735 -0.059080589998733224 0.025053037635278663 0.00022730245182422948 -0.0003134537395261816 -0.00042643983112355954
          0.00020318504201366494 -0.0013777578402418555 -0.001651850865001414 -0.0029704771952090425 -0.003075262721797145 -0.008620285424997931
          -0.009400544507277786 -0.008379126895654565 -0.01090415272809242 -0.0064340160276090685 -0.003007608871766543 -0.013315255193704356
          -0.008031489920722112 -0.012037862680246203 -0.009921691026504309 0.006980308827192694 0.0008754056083759565 0.010774293837060966
          0.0026120907312352504 -0.009352262137666045 -0.0015157126306684088 -0.004483954964635939 -0.011356906996645932 -0.003592147831882553
          -0.012341467997778466 -0.006005283780842308 -0.00713577188401171 -0.000007676331362560518 0.0003282409655067653 -0.00001495885385072171
          0.0007605463490070186 -0.001953049247009453 -0.003937193599887756 -0.002793197421921967 -0.0034963322286634124 -0.006658585495787683
          -0.008093550326469412 -0.007815421461753402 -0.009586335117282907 0.013299280936498015 0.035599271406639765 0.013757525114070468
          0.07616159919067655 0.16425005902652856 0.0870060749807493 -0.0038516157616461655 -0.005461371601493958 -0.005215281306655939
          -0.0070358277669626546 -0.002023379782803758 -0.0026958252734008425 -0.005414789113921792 -0.005002056343541117 -0.0040302950960660056
          -0.00351110401877186 -0.005765695072534882 -0.005545907197964883 -0.0023012564590469964 -0.005066449331705414 -0.0011247991990916972
          -0.004765717676741055 -0.005595291615566822 -0.005659368151256672 -0.005880388514931667 -0.0026790717244740136 -0.00637123126095851
          -0.010189877903536093 -0.005879309399444033 -0.004934155068556656 -0.0014473286187524081 -0.005990724606369291 -0.004533817077490454
          -0.0034857521916729084 0.0000407173805960781 -0.03940096830695072 -0.030499350411600012 -0.0037554106570087953 -0.0003419461009013247
          -0.08507751552658682 -0.06778443008212065 -0.007890282846985563 -0.006632797025443615 -0.05086743369529412 -0.04500891331152346
          -0.00677852054493755 -0.0019264707588604324 -0.014424029620236034 -0.00223627623053968 -0.013757807093854879 -0.005540564328412323
          -0.00445305701494636 0.03467047947291757 -0.003997888316931153 -0.004579647439908463 0.0859131326582534 -0.00479191141814006
          -0.004608504601638863 0.043039597376872685 -0.004279198118910976 -0.007258583037137001 -0.010887137523798884 -0.003913801486115531
          -0.011435135957172271 -0.01045977778992313 -0.004585409215998482 -0.010591490703542483 -0.009022458871606354 -0.0044184660861308345
          -0.004822825864280178 -0.0021255178020649357 -0.005362699655562908 -0.0013981987550750752 0.0010867834094714368 -0.002311759563695226
          -0.02515386654564189 -0.0016305146189585784 -0.05202544862213454 -0.002986562078479693 -0.03357047585678874 -0.007619670276277191
          -0.003205254312803163 -0.00437254765957551 -0.0001654111168587491 0.00009657754334746471 -0.0038018352306203873 -0.0042424166959103005
          -0.004749055757048648 -0.0004710357468735715 -0.011102435977813574 -0.004621493687111844 0.013972069981178725 -0.009397691764746696
          0.02954371090165331 -0.003488031528791957 0.015157734389143696 -0.009810294690242749 -0.015411705361289663 -0.0042675388441857365
          -0.005158461470624154 -0.006449040352837443 -0.001817512743309102 -0.0009607478730693231 -0.011891034161127578 -0.014367622542414082
          -0.0036682134112790976 -0.0017488846548436854 -0.009068127445504892 -0.009251997790683308 -0.004775959430867616 -0.004014675979211013
          -0.004402941962486473 -0.004434961958127204 -0.005507381134830958 -0.0006320027430817277 -0.005006085641589664 0.00048592525024204747
          -0.004528100038014848 -0.003892537052650802 -0.0072202858484455845 -0.008489603291831571 -0.009888589092046374 -0.008919838784845702
          0.01663509745678393 -0.038514797896691655 0.03733329972765187 -0.07120032867619541 0.017867436447461138 -0.0389897630277386
          -0.005934065892439833 -0.01023992694372744 -0.00795810598620772 -0.004763937540538166 -0.014916729200944445 -0.009422534432036223
          -0.006436964383220278 -0.017653720998177747 -0.017141749066109213 -0.006695817659789327 -0.014568716837930928 -0.010646993497151591
          -0.006870018680531054 -0.0043572236999698255 -0.0030284136764135994 -0.0013917960626530501 -0.004559995452276588 -0.003940766272715557
          -0.008899243706610438 -0.010303734672307607 -0.003029416718774769 -0.006368136277353997 -0.006110227151788106 -0.007604413287631839
          0.01524404966248838 -0.003419415960450145 0.042604439303999264 -0.0039108037351716085 0.023847518279189295 -0.006194204348617838
          0.01486624080275556 -0.0042813186761812005 0.04141771809346917 -0.0042646817103451085 0.01968744865961103 -0.004369451561699655
          -0.009335537195106047 -0.012219920624296332 -0.010861272641937925 -0.008345653891036253 -0.005198207574429681 -0.010306740584900886
          -0.01124327307070061 -0.014622193484521873 -0.011110778629586981 -0.00719117161145455 -0.004832900449658339 -0.0039700312356947265
          -0.006944008966831561 0.0015540192777363515 -0.004942331302101977 -0.0026285796078706625 -0.0003150089149199786 -0.001056340034054415
          -0.009066512776325197 -0.010184635888579763 -0.005249532723103911 -0.008797029511683263 -0.00807796334064026 -0.009850646031420496
          -0.005688331229942389 -0.019936672722733473 -0.004409276307305643 -0.034495033674032616 -0.0043882121636006355 -0.012963259394074722
          -0.019999702791089646 -0.04054137903849053 -0.03324369047138287 -0.00921655699085644 -0.0016682881854857001 -0.004791284284413777
          -0.007207422373536332 -0.005310485502237228 -0.009863858856715702 -0.008435971379605278 -0.008050740601634132 -0.007505069127730302
          -0.009777322844831793 -0.005561176917120214 -0.006140657749257983 -0.01024067444675758 -0.011392194290043012 -0.013420657976183747
          -0.0161971086783681 -0.009535531360720384 -0.011955862209602763 0.009147767423110409 0.02638562906472952 0.007565378620736141
          -0.006260990559750823 -0.00533827204285231 -0.005759746516415198 -0.007759144813245911 -0.011064409637523198 -0.010126542858463594
          -0.010328859937250634 -0.004789458417722603 -0.005642083721772995 -0.007832196795683366 -0.009098930478352418 -0.0029612483220202712
          -0.006280721992170335 -0.003296755162437215 -0.0048958036566402185 0.024522146503712428 0.06802140975247806 0.034808626046655355
          -0.003951697246179275 -0.002394412690549963 0.001607884269695159 0.0493215958089559 0.11242516804735159 0.06501843819552189
          -0.00842615805254976 -0.010850465469100179 -0.006709516798035331 -0.019261773800904436 -0.02721519465648825 -0.009261141519937954
          -0.013652581645393624 -0.021492671585025214 -0.007850844529639467 -0.05040111768768307 -0.09505324533990489 -0.053099620160568684
          -0.005616345582062365 -0.0017495589778313558 -0.00472330328358872 0.02489983828400799 0.06641330223052666 0.03392263454763356
          -0.003962141673746977 0.0027274479255314787 -0.0009266787270458821 0.015986269615877013 0.051145561398257655 0.026165058811389308
          0.031454815053537644 0.08121809572792671 0.03971790661194685 -0.015177949037898486 -0.026801632951166 -0.022228889242201788
          -0.008512065074595565 -0.0015231405673947762 -0.005119247807905847 -0.03298043839353593 -0.0013455040764913662 -0.060385464025046076
          0.0016940538949405948 -0.039389643758007686 -0.005912218614787079 -0.020578010213052167 -0.027127159073566887 -0.013376935773927734
          -0.0082675477545191 -0.005022121729451712 -0.00287821757876916 -0.002882306201333229 -0.0044402970852290835 -0.0027263358249047798
          -0.010161226719844318 -0.002228617854326931 -0.0033979681667259953 -0.007214017238085013 -0.006922527413180113 -0.0066125149608602385
          0.016667700010508213 0.054751263334537725 0.030061735217722152 -0.009676890854287024 -0.0074980418502876844 -0.011376090160499785
          -0.00962035329334121 -0.008046136243931912 -0.007741430187147458 -0.004388974619850217 -0.010871240833834506 -0.00029886646375931747
          -0.00914515955610895 -0.015668118731991143 -0.00215489739034469 -0.01251530777878962 -0.009247782843047947 -0.004627681144409812
          -0.00764252371696017 -0.012084807960604849 -0.007447780876112198 -0.012445817764247025 -0.013985131226203151 -0.0111685864879556
          -0.006685642161897931 -0.006643523422296127 -0.0142629818456399 -0.014471324935398044 -0.012194463391777433 -0.010056344517304083
          -0.002615151125853643 -0.009631470082159588 -0.009646024447029333 -0.009055937185339147 -0.015342355662474105 -0.010477303839421914
          -0.011700493672679002 -0.011525137538988872 -0.017410663230851497 -0.013482309125297576 -0.012164655278249725 -0.009450419088055106
          -0.0009327408696933048 -0.013524741343191593 -0.006087566398106148 -0.017433779288186457 -0.011418561459628052 -0.013446483226948303
          -0.011244780203222504 -0.015437214830704704 -0.01197137010861038 -0.007742806272091229 -0.005654625347662368 -0.011316638301426707
          -0.007710162299598977 -0.004172104063495219 -0.004540998987772937 -0.01832393751110395 -0.03129579812422989 -0.02032150303103286
          -0.00915116317123399 -0.003489508139050912 -0.015527310781962456 -0.007347457004838631 -0.008518747232977297 -0.006351459234388734
          -0.02285074330421466 -0.03987609239365497 -0.021973816424403658 -0.009264225590423614 -0.011559871279624545 -0.008239243798685791
          -0.005598586199632827 -0.00770130717745765 -0.006269654521058321
        </DataArray>
        <DataArray type="Float64" Name="resid_y" format="ascii" RangeMin="-0.04835404948556149" RangeMax="0.05305689081563152">
          0.0045796649786283145 0.005534148795154681 0.003631303679555456 0.0005726716684821831 0.003794409477352434 0.005220535386119218
          -0.0006738072190412558 0.001198703320036687 0.003660590122802454 0.0028647195584323715 0.007608744653231192 0.005173074129729838
          0.0032967591525370765 0.00918039020799477 0.006556859813439564 0.004868971217418472 0.010910434117821444 0.007735768883111893
          0.005297990024199839 0.01149297253392656 0.007816924322724184 0.004337663685099802 0.007580328105546652 0.006003127364475835
          -0.0010691278646077773 -0.0012961298387387243 0.0025878901173204127 -0.015615979886490682 -0.032324424140138246 -0.014684553674245343
          -0.0010221674223357263 -0.0018699869835170357 0.0007247213541379804 0.0002800823942313291 0.000629272594383834 0.0022522635383405154
          -0.00014739766166249613 -0.0007620356506859438 0.001993981512408871 -0.0001580172612161146 -0.001074452210042487 0.00181654616302096
          0.0015498765339788112 0.00019254782850613994 0.0019009055244735285 0.005264200061720431 0.004841420564131699 0.004731021801110014
          0.02150436282218999 0.04018362871259452 0.02387813660612889 0.003505135056218134 0.0058676183003526505 0.0043770930318667856
          0.0030194687715930923 0.0023912206461896846 0.003616015479112805 0.0031901307007725643 0.0036024176071827174 0.004726490221234836
          0.0035461901590467804 0.00258673350835692 0.00432449916487071 0.003918962233889933 0.0028255065779144717 0.004399734198627603
          0.004064721352351586 0.0026913631446896513 0.004380960066206779 0.003921292046243127 0.0024071124557029644 0.004124416225666635
          0.00691456071891975 0.010484614698452799 0.009639053357179087 0.002543720746347511 0.003262621961976797 0.0029647116957393083
          0.002553128225803447 0.0006602020582501256 0.0025933583584222264 0.002738874744564024 -0.00004826763137188994 0.0030244596143174096
          0.0027749680673646027 0.0001869126586975245 0.0032935347801514303 0.003499021819984377 0.0014140899339246948 0.0037921689652873347
          0.003624420598289116 0.001435632959094324 0.0036982279080418814 0.003373751764635828 0.0010668129607100865 0.0034685650456154904
          0.00377454336883265 0.004241260925539586 0.00550414266964297 0.004684611612635781 0.004928028777409166 0.004430863672824081
          0.002692564671950781 0.0011881851712499114 0.003444193090125669 0.0030064100035747665 0.00034306859190808003 0.003345206477712359
          0.0028653639546925014 0.00017227791291876682 0.0032359513348703267 0.0033222375313268077 0.0010978112337096807 0.0037564811295578114
          0.0032817884656684213 0.0007858422252001937 0.0034176747644409505 0.00329408134276353 0.0011310897505449821 0.003729910231668118
          0.0025705908760059112 0.0013051019614977802 0.0038122344117246937 0.004139414213476744 0.003090561321521079 0.003294360621140191
          0.0027884016098283504 0.0010253239214412235 0.003362918659857078 0.003142993426395041 0.0005064482698275974 0.0036077985153745856
          0.003492098568585511 0.0011911036824451132 0.0036789819107770315 0.0000018254313749674345 -0.006458751150943106 -0.0005782109315027872
          0.0022111048711256492 -0.0015982542708147668 0.0021551944617699687 0.00329329344116102 0.0010564118046746049 0.0035928346678044606
          0.002587768251654521 0.0010647882254349594 0.00351948171929764 0.0021606111203467115 -0.0011271189919881408 0.0007972207650992491
          0.0027690758785844927 0.0009418170192503905 0.0033646489248008726 -0.005167118297130846 -0.017753228706323787 -0.005694026050198288
          -0.0008318637532422901 -0.008139708310225105 -0.0014305948042388147 0.0011790128681732626 -0.003919730668337396 0.0004193695403958003
          0.003723323144328057 0.0018276519681378542 0.0037544275432804253 0.003210456192343572 0.0009990482438819864 0.0035417396860000505
          0.0027790602899915723 0.00120029673437895 0.0038846118753317616 0.00565154887571942 0.0016136660129101588 -0.0002088156412247688
          0.000035258229485121695 0.009174012850171623 0.0022782854706150657 0.00042308545470733094 0.0004938165643700448 0.008148230754806654
          0.004725270186354408 0.0019867136181648745 0.0014914129000646523 0.006748786674587226 0.00005959534333710437 -0.00005150416632493382
          0.0025834481575102777 0.012892723375541426 -0.00006415176069901607 0.00018514947899328504 0.00290772918366132 0.011896966266170539
          0.002197246406827724 0.0017688090852446825 0.005397169506490482 0.009761665599362326 -0.00019983417958620298 0.01648102330575653
          -0.0012196972130159092 0.011830779750678783 0.0015098307476585707 0.0026325432427563994 0.008167904979822616 0.0004811927829920862
          0.011581051683196064 0.0017053995576767622 0.008910350364347702 0.004474733334784287 -0.00010264675203579265 0.005660350277878993
          -0.00028173062876720584 0.006312395733026794 0.0013405641047730173 0.003511687951379794 0.0023212180374163477 0.0036874378656757134
          0.0038404120381006768 0.0033987853101116183 0.00254417618388178 0.0038026645520796666 0.003848355427580878 0.004146687362883636
          0.00376870878174208 0.0025698183387745576 0.0028879644674986438 0.004153869782750591 0.003667936905269703 0.0050332590025205515
          0.003361674996976205 0.0012225515815966759 0.0007166222511189035 0.004039329164330641 0.003250135924278641 0.002345970849230432
          0.004045380649885438 0.0026078227304957707 0.003635756058605555 0.0018146729176265336 0.0026989433636132043 0.0019129411024393639