<?xml version="1.0"?>
<VTKFile type="UnstructuredGrid" version="0.1" byte_order="LittleEndian" header_type="UInt32" compressor="vtkZLibDataCompressor">
  <UnstructuredGrid>
    <Piece NumberOfPoints="774" NumberOfCells="452">
      <PointData>
        <DataArray type="Int32" Name="libmesh_node_id" format="ascii" RangeMin="2286" RangeMax="4991">
          2286 2287 2288 2289 2290 2291
          2292 2293 2294 2295 2296 2297
          2340 2341 2342 2343 2344 2345
          2346 2347 2348 2349 2350 2351
          2400 2401 2403 2404 2406 2407
          2412 2413 2414 2415 2416 2417
          2418 2419 2420 2421 2422 2423
          2487 2488 2489 2490 2491 2492
          2523 2524 2525 2526 2527 2528
          2529 2530 2531 2532 2533 2534
          2550 2551 2552 2553 2554 2555
          2556 2557 2558 2559 2560 2561
          2580 2581 2582 2583 2584 2585
          2685 2686 2687 2688 2689 2690
          2691 2692 2693 2694 2695 2696
          2698 2699 2700 2702 2703 2704
          2706 2707 2708 2796 2797 2798
          2799 2800 2801 2802 2803 2804
          2805 2806 2807 2838 2839 2840
          2841 2842 2843 2844 2845 2846
          2847 2848 2849 2881 2883 2885
          2949 2950 2951 2952 2953 2954
          2955 2956 2957 3054 3055 3056
          3057 3058 3059 3093 3094 3095
          3096 3097 3098 3099 3100 3101
          3102 3103 3104 3117 3118 3119
          3120 3121 3122 3123 3124 3125
          3126 3127 3128 3195 3196 3197
          3198 3199 3200 3201 3202 3203
          3210 3211 3212 3213 3214 3215
          3216 3217 3218 3219 3220 3221
          3222 3223 3224 3225 3226 3227
          3252 3253 3254 3255 3256 3257
          3300 3301 3302 3303 3304 3305
          3306 3307 3308 3309 3310 3311
          3318 3319 3320 3321 3322 3323
          3324 3325 3326 3327 3328 3329
          3330 3331 3332 3333 3334 3335
          3366 3367 3368 3378 3379 3380
          3381 3382 3383 3384 3385 3386
          3387 3388 3389 3390 3391 3392
          3453 3454 3455 3456 3457 3458
          3459 3460 3461 3483 3484 3485
          3492 3493 3494 3525 3526 3528
          3529 3531 3532 3543 3544 3545
          3564 3565 3566 3567 3568 3569
          3570 3571 3572 3588 3589 3590
          3591 3592 3593 3609 3610 3611
          3612 3613 3614 3615 3616 3617
          3618 3619 3620 3630 3631 3632
          3633 3634 3635 3636 3637 3638
          3639 3640 3641 3654 3655 3656
          3657 3658 3659 3660 3661 3662
          3684 3685 3686 3687 3689 3691
          3693 3694 3695 3696 3697 3698
          3708 3709 3710 3711 3712 3713
          3735 3736 3737 3738 3739 3740
          3741 3742 3743 3744 3745 3746
          3747 3748 3749 3762 3763 3764
          3771 3772 3773 3774 3775 3776
          3777 3778 3779 3786 3787 3788
          3795 3796 3797 3798 3799 3800
          3801 3802 3803 3804 3805 3806
          3807 3808 3809 3816 3817 3818
          3834 3835 3836 3837 3838 3839
          3846 3847 3848 3849 3850 3851
          3861 3862 3863 3882 3884 3885
          3887 3888 3890 3900 3901 3902
          3903 3904 3905 3906 3907 3908
          3924 3925 3926 3927 3928 3929
          3930 3931 3932 3939 3940 3941
          3942 3943 3944 3954 3955 3956
          3958 3959 3960 3962 3963 3964
          3969 3970 3971 3972 3973 3974
          3993 3994 3995 4032 4033 4034
          4035 4036 4037 4053 4054 4055
          4056 4057 4058 4059 4060 4061
          4062 4063 4064 4089 4090 4091
          4104 4105 4106 4107 4108 4109
          4116 4117 4118 4128 4129 4130
          4167 4168 4169 4170 4171 4172
          4185 4186 4187 4208 4209 4212
          4213 4216 4217 4233 4234 4235
          4236 4237 4238 4254 4255 4256
          4257 4258 4259 4269 4270 4271
          4272 4273 4274 4284 4285 4286
          4287 4288 4289 4290 4291 4292
          4293 4294 4295 4302 4303 4304
          4314 4315 4316 4317 4318 4319
          4320 4321 4322 4323 4324 4325
          4326 4327 4328 4338 4339 4340
          4344 4345 4346 4350 4351 4352
          4353 4354 4355 4365 4366 4367
          4368 4369 4370 4371 4372 4373
          4374 4375 4376 4377 4378 4379
          4380 4381 4382 4383 4384 4385
          4386 4387 4388 4389 4390 4391
          4398 4399 4400 4416 4417 4418
          4422 4423 4424 4425 4426 4427
          4428 4429 4430 4434 4435 4436
          4437 4438 4439 4440 4441 4442
          4443 4444 4445 4458 4459 4460
          4482 4483 4484 4485 4486 4487
          4488 4489 4490 4491 4492 4493
          4494 4495 4496 4497 4498 4499
          4500 4501 4502 4506 4507 4508
          4509 4510 4511 4518 4519 4520
          4521 4522 4523 4545 4546 4547
          4566 4567 4568 4569 4570 4571
          4572 4573 4574 4599 4600 4601
          4602 4603 4604 4605 4606 4607
          4611 4612 4613 4647 4648 4649
          4650 4651 4652 4653 4654 4655
          4656 4657 4658 4677 4678 4679
          4689 4690 4691 4692 4693 4694
          4695 4696 4697 4716 4717 4718
          4743 4744 4745 4746 4747 4748
          4749 4750 4751 4779 4780 4781
          4788 4789 4790 4800 4801 4802
          4803 4804 4805 4806 4807 4808
          4809 4810 4811 4830 4831 4832
          4872 4873 4874 4902 4903 4904
          4923 4924 4925 4968 4969 4970
          4986 4987 4988 4989 4990 4991
          2880 2882 2884 3883 3873 3886
          3876 3889 3879 3957 3961 3965
          3875 3878 3881 4119 4120 4121
          4206 4207 4210 4211 4214 4215
          4347 4348 4349 4251 4252 4253
        </DataArray>
        <DataArray type="Float64" Name="resid_x" format="ascii" RangeMin="-0.03187042626530001" RangeMax="0.01957709503494698">
          0.00002249725921910084 0.0000934218811945442 0.00006440211830849307 0.00017983978946656265 -0.00040635843373104663 -0.0003302327951804074
          -0.0007733290938940485 -0.0006005860670592611 -0.002420454001701433 -0.0025967536377837774 -0.00254135179692927 -0.0023122018739991645
          -0.0005247259904548329 0.0002501037263815675 0.00019624835626452786 0.00042425432013182274 -0.001736599632427449 -0.0001453303583236476
          -0.0006341315326628127 -0.00020804519523132115 -0.0038710938463220046 -0.002719342069182673 -0.002691369094726004 -0.002828574049461352
          -0.002552914231222836 -0.0006864670651278715 -0.0037469130003220386 -0.0009545588086270484 -0.0024114500320724375 -0.0009303707934389394
          -0.00039367355255848224 0.000014018444725927282 0.00005488602568259893 -0.00027831760986707366 -0.0011258480733085108 -0.0003107347123361137
          -0.0009229520249425249 -0.0018055958568385932 -0.0008553266995425801 -0.00032384243475735985 -0.000749130911055218 -0.0012602025172743225
          -0.0016052718210639583 -0.0011961798777724297 -0.0007928606554727935 -0.0005122356457141208 -0.002309908335182964 -0.002206293282934091
          -0.000012206261771119387 0.00014292288335893133 -0.0008067460056473408 -0.0008271918125455358 -0.000046740755396790234 0.00012913781412504655
          -0.0020919422438829827 -0.002596870028327203 0.00042030671909643047 0.0004538820142698796 0.00011534516852318433 -0.0011408662713652262
          0.00014516385715301894 0.00019948960071913824 0.00022404754722238351 0.0003186377143338248 -0.00009188696141482211 -0.00014378423395222661
          -0.00012964152808159213 -0.0007660778129832124 -0.003093709457508975 -0.001669182395358737 -0.0017094078841513038 -0.002658897574871588
          -0.00039815085333483324 -0.0002933299405789569 -0.0004565835640812921 -0.0006447693799298548 -0.0016426683071992798 -0.0021991625446675656
          -0.00008338300627830364 -0.000034721749766042365 0.0000522438863770347 -0.00003257858653871182 -0.0005073000019022444 -0.0001885206888196933
          -0.0007285603019271392 -0.0006230558236293149 -0.003001224261920399 -0.0031071591601570248 -0.0035551536988647214 -0.0032899551720246833
          -0.0015981687299202463 -0.0018439958637239684 -0.0008317701724376292 -0.002760614660360261 -0.0012373277393447069 -0.0005773468113368097
          -0.002269795407750408 -0.0020745626588647426 -0.0014599933330128323 0.00005048176346367228 0.0001772898022780467 0.0002611936896750322
          0.0003116086444161503 -0.0003751612847535668 -0.0007206192507869247 -0.0003118004368021232 -0.0007127328944593891 -0.0024056342584941603
          -0.0021924365403513946 -0.0018571646311364987 -0.0024773476654584847 -0.00006228266836671992 -0.000033240711009518975 -0.00002816763829205371
          0.00004639785756532788 -0.0004904549115929413 -0.0009436281073273989 -0.0006323051146184255 -0.0008571770242116195 -0.001074442620714322
          -0.0015213490977501465 -0.0011594643761032586 -0.0010954562183367322 -0.0017217241001485917 -0.00258077825444758 -0.001686901571132715
          -0.0004951013541791838 -0.00029915200246932727 -0.0006527907901743291 -0.0005925307797562951 -0.00043269413794178035 -0.0007598822820242823
          -0.0004519993119345145 -0.000156059210323356 -0.00041975221915713234 -0.0005704799560319884 -0.000786700003852836 -0.0004390486338685662
          -0.0013867186223999184 -0.0014530971268031934 -0.0021508225219140087 -0.0015854450174090928 -0.001357086801921703 0.000051217208336673536
          0.00012138307078846111 -0.0013351327319339745 -0.0009395759037191809 -0.00013282510890055832 0.000054802621642480176 -0.0010033423855686507
          -0.0011877111831548604 -0.0005255141234146166 -0.0002582898901266617 -0.001323311246700598 -0.001252941537015051 -0.001611616443558006
          -0.03187042626530001 -0.0006812708522012656 -0.0011645070761163723 -0.0033536590457643456 -0.029188178111475338 -0.0022186661907053207
          -0.0024810103294439223 -0.0029925277471480882 -0.004189357467833332 -0.00016751033101458646 -0.0003938773877667501 -0.0009234805621431974
          -0.000516492571507321 -0.0011672735944046053 -0.0004772591001991344 -0.0015593958553017373 -0.0026355206778747586 -0.001387434840016688
          -0.014710085185456023 -0.00039845985523090377 -0.019167662116846174 0.00007105932433315587 -0.002627887818881014 -0.001144154322180846
          0.000015187457929499715 -0.0010588913935309918 -0.0012195486987929272 0.0002677475362453663 -0.00006930711430364056 -0.0013018548000069963
          -0.0013490117381964595 0.0002336468770680611 -0.0012525211735754382 -0.0018221366238244663 -0.00195925008764819 -0.0009311076461928636
          -0.0012608339355191234 -0.0016621332483728324 -0.0007434210557484278 -0.0025318870613562083 -0.0014537273519152905 -0.0023499977245036163
          -0.0015590749318370456 -0.0007343486275530609 -0.0037770714327898247 -0.002334971147533338 -0.003517423737292802 -0.0023039409110658937
          -0.0011016111778641147 -0.0012567996011343396 -0.0005083119844417894 -0.0006158433379530592 -0.0014286430782171067 -0.0016212915798181626
          -0.00031867771415661217 -0.0006288096854154546 -0.00011417121584322842 0.00016651206962814413 -0.0006040876380761784 -0.0011371486216464888
          -0.0004949353807646162 -0.00019451785770274732 -0.0018747542167858455 -0.0015019215211831138 -0.0012896450190904574 -0.0017442957365071399
          -0.0008920701936134812 -0.000377893380286487 -0.0006120572310747141 -0.0002626896783892718 -0.0002769011919364628 -0.0002242092267819018
          -0.0018067620231008164 -0.004631065100110021 -0.0039406057824518115 -0.0008145515050239638 -0.0010451012471976995 -0.0009398595014951105
          -0.00133442001454398 -0.000879984020363711 -0.0015738766929676018 -0.00029522956991101523 -0.00011610836632325316 -0.0004004429637047835
          -0.0001987366224778242 0.00008198343852328094 -0.0012517098997033571 -0.0006203283187460329 -0.0000443793575524154 -0.0009092031805089107
          0.0000020576621269086104 0.00018069884495997002 -0.0019984435502209408 -0.000002118047525812017 0.000307341956702345 -0.0050151886874942875
          -0.0015959432276355656 -0.00121317167353574 -0.004188270436046082 -0.0012920470030559628 -0.0009301804691475013 -0.0001973876082468351
          -0.0006704292447654581 -0.0002488559130098267 -0.0016254633466230572 -0.00200352665187431 -0.002656023935967866 -0.004400417095229869
          -0.004642710544359829 -0.003395428968676839 -0.0030573156236837207 -0.00006356562770104546 0.0005393119036929406 -0.0008568145052123555
          -0.00031861126465138057 -0.0008949535176125956 -0.001379778624557293 -0.000533278987168817 -0.0010543153271811434 -0.0008142850787469236
          -0.00113397531854309 -0.001245491318549341 -0.001558628933515216 -0.0007698808877742991 -0.00035849370977425465 -0.0008413003437430788
          -0.00028906739653056235 -0.0016086583019188083 -0.0011596364024040184 -0.0006959093120926241 -0.00007431788322431743 0.00000969465500499922
          0.001014860451602928 -0.0015128674547035814 -0.0005773994521711678 -0.0003604504235532602 0.0013254616779354578 -0.0020865277329651377
          -0.0009909813107423782 -0.0014172033995611955 -0.0012079768957127257 -0.00004282889510065502 -0.0037578728228346847 -0.0004462769189217397
          -0.00020982141814407385 -0.00033232789350456926 -0.008391070967822323 -0.000833684844733007 -0.0006385615155117819 -0.0018108832518404228
          -0.004586018683245818 -0.002523870350594315 -0.00260351780959045 -0.001608930042198864 0.00006926411572338864 0.0001654075485957307
          -0.003424450161624293 0.00009138336201663932 -0.000047393209785973056 -0.0029415336274665194 -0.0018309338541167008 -0.0010907298410307575
          -0.0013902167820525335 -0.0008322204014961088 -0.0004143750578409211 -0.0010846795267847043 -0.0016710336488028332 -0.0009757280184503614
          -0.002366137831090409 -0.0018461269417935355 -0.003590223323868713 -0.0022618675198842197 -0.0021215967267016467 -0.0020721310841818052
          0.001732331266163456 0.0011470936834552248 0.005999500829241278 0.0008919878096467215 0.0002560588483628834 -0.0022166104557452826
          -0.002778441806543519 -0.0013084617907415108 -0.00048783642967009655 -0.0015162001254425128 -0.0005772748676865502 -0.0008443868676311084
          -0.001272626145857103 -0.0009914035592393233 -0.0004073230530674543 -0.00038339256871555705 -0.0009380107190146703 -0.0029990483703603577
          -0.001038658272419335 -0.0015968471443814636 -0.0023583725148714763 -0.0019169528155851268 -0.0008292193596277642 -0.0022028210411990656
          -0.0018089707566588675 -0.001131698391689362 -0.002970991957799596 -0.0008861627327041433 -0.0011237419335268228 -0.00016119047599261194
          -0.0006123765466106157 -0.0013756627145036227 -0.0015694128897756343 -0.0015686897784075171 -0.0009619696455307469 -0.0007358446816008168
          -0.0016623595980878036 -0.0014725212580879443 -0.0008322328401586532 -0.000457008473034648 -0.0015444188006732418 -0.0016301220848866649
          -0.0011472951950022292 -0.0007261782266869687 -0.00030426347135037446 -0.001064832880466049 -0.0006474142752921352 -0.0009580646680124594
          -0.000570910736518826 -0.0024459627378882187 -0.0024614057453993254 -0.0020886676626141742 -0.0009750463509373697 -0.0025218338707737598
          -0.0014017101358767547 -0.0007393354763349791 -0.0021100239321674152 -0.0015850494566657103 -0.0005282154857843002 -0.0020546854982345097
          -0.00028040364557035957 -0.0006311369304321524 -0.0000704169555083567 -0.0006112933313424662 -0.0000013160443979032266 -0.00042600763667266506
          -0.00219536402873316 -0.0003591104537453149 -0.0016195884028310514 -0.0019396227576811143 -0.002645780207110704 -0.00396260963311601
          -0.003916119949112229 -0.001988906407594193 -0.0030589471719846273 -0.0012321547802676136 -0.0009734162453431949 -0.0012478404692775058
          -0.0007089423175266063 -0.0010214815881077755 -0.001393269193807889 -0.002146204451960898 -0.0019299711723768098 -0.0018386969071686465
          -0.0018438819833386244 -0.00042155901949492147 -0.0017149359601935643 -0.0010336393188010717 0.00011074024037238672 -0.0009756399258842308
          -0.0014808183169885414 -0.00048581112025125606 -0.001242717470481658 -0.0014809581379093828 -0.0016047953004720839 -0.0021376835352420187
          -0.0020349198032239 -0.0004577280217201718 -0.00006625440493079893 -0.00200203760838491 -0.0012326295827982392 -0.0036878615185598207
          -0.0043971611044426595 -0.0015801186602173445 -0.004327440584869002 -0.0024794835149517525 -0.0017071510535462409 -0.002638774819108569
          -0.003238017627130496 -0.003451191621620886 -0.0019850552931508503 -0.0015960080480126315 -0.0007897747382905607 -0.001815399977233234
          -0.0002163625160136462 0.000948409273503259 0.00012724402085950715 -0.0004389270936293599 -0.0008246672178975345 0.00006384125085112657
          -0.0003864577882604081 -0.00011167992834071327 -0.0008173963665036865 -0.0009532817758284295 -0.0005836587542038529 -0.0003990981744568245
          -0.00026113967790308834 -0.0009403604556199596 -0.001072699362481444 -0.0014241542928470352 -0.00020281956057610628 -0.0013829872435087154
          -0.00003127207455166925 -0.001838814523004828 -0.0009284592211100673 -0.0021680726712158815 -0.0014267474624301002 -0.001709152023229521
          -0.0010775379637033566 -0.0030842479523363053 -0.0005636044862278311 -0.0016637147069813452 -0.000010065032087780423 -0.0007045576330115821
          -0.000918929361430898 -0.0002527395272906574 0.000025644393839563406 -0.0015385973867694247 0.00007704695140553497 -0.0020789818209872024
          -0.0006169767790593639 -0.00027489604211261565 -0.00018362216224154793 -0.0015379357170361985 0.0001049807039761319 -0.0021354158137576462
          -0.0016869322116233043 -0.00013505938495894654 -0.002167751933815687 -0.002934076790868101 -0.0015538952021580954 -0.004132386417384115
          -0.0022049090357914025 -0.0013122300619130556 -0.0006789118590360133 -0.002073732005773876 -0.002118484042012092 -0.00048433595099195426
          -0.0011591090736233767 -0.0019064196262368327 -0.002647121186353907 -0.0017142307064945683 -0.0008630353492300458 -0.0016229633736850602
          -0.004425127737579082 -0.0037413066341205337 -0.0018861172843589458 -0.0029775280564701134 -0.0008188091996199631 -0.002408040074541873
          -0.0021875636771753193 -0.0011979794646848063 -0.0007910315416328473 -0.0008460654110260535 -0.0006135320838245306 -0.0005273634397839899
          -0.0009813371456282027 -0.0010210162910606613 -0.0006670886010242683 -0.0013282385827402265 -0.001197502026637487 -0.000623846697494379
          -0.0002659471844825845 -0.0013498665461018078 -0.0012901482219271898 -0.0018023022667144062 -0.0009878089842931814 -0.001424220696645051
          -0.0011827198774816416 -0.0019910921955501593 -0.00043469677451790645 -0.0021254636146670336 -0.0017014603590261856 -0.0018015768273569321
          -0.0012547647390057648 -0.0016031852994444762 -0.00044246738068576263 -0.0005271095317551655 -0.003397532961773919 -0.00046842437615790544
          -0.0013283442052838268 -0.002720627036069345 -0.0013016031689909724 -0.0012894621509031978 -0.0022118519965852457 -0.001996333121967453
          -0.0016921628953694423 -0.00062839483411814 -0.0012130569510251377 -0.0014163573736780677 -0.0012143418013996765 -0.0002591820949637835
          -0.00025249419911688165 -0.0025009168985992147 -0.0018524539323241385 -0.0026062456435784753 -0.0013885061579967939 -0.0009315766703341666
          -0.00017933715684836926 -0.0012469211279420023 -0.0009002508661875019 -0.001394157103328908 -0.00009498275706243398 -0.0009832985940534389
          -0.002637135645152 -0.002373917305899198 -0.0010236119091864282 -0.0010741474748114932 -0.0010296194940000447 -0.001036875502163248
          0.007606095319388828 -0.00029049746433340573 -0.00224821561139521 -0.011412231779174054 0.01090652436395878 -0.00032473253665532553
          -0.003793049316360264 -0.01845837433969466 0.0010224830954257413 -0.0008928159441237149 -0.0020650777060367 -0.0064330211548080385
          -0.004648702150028328 -0.002965210364011206 -0.0032395104601405933 -0.0016572028519976634 -0.0009243164711008056 -0.0012955185026988225
          -0.0018611276906153051 -0.0017795778269906748 -0.0015040053942403375 -0.001272547729840312 -0.0013505147948631446 -0.0007961698724479049
          -0.0026332231140800133 -0.00041952565967229294 -0.00144032589853349 -0.0025516971221506424 -0.0005067399793365901 -0.005164957261591496
          -0.000025272528231923275 -0.00340727640740468 -0.0010481168720462009 -0.0007468106520018836 -0.002281659844534545 -0.0003533184233717179
          -0.004509406138165417 -0.0019509491663116663 -0.003721224225085251 -0.0020496350220238213 -0.003768046795151747 -0.0028032972596330197
          -0.0016788022495255461 -0.001595078712542497 -0.00023319442120151024 -0.0007339551498664054 -0.0007223206390341019 -0.0007677754391876013
          -0.00022063618193879364 -0.0013126514464705252 -0.0029516165313792087 -0.00013845329704942344 -0.00016486546692462412 -0.0016182760115670547
          -0.001955446327531085 -0.00021931756896265142 -0.0011358261637015588 -0.002381296701750024 -0.0025916488970727514 -0.0012419769990890117
          -0.002202771007032922 -0.0015100386360105134 -0.002005000761671205 0.001022181449882531 -0.0007441959358782668 0.0016570891588401082
          -0.0004540019322165634 -0.0005372023333469755 -0.0006502707682907172 -0.0013541282430944435 -0.0020745792069831737 -0.0008432394284003664
          -0.0007454378934257377 -0.00299156004405976 -0.002703005470594988 -0.0015950435336824498 -0.0005254266148746467 -0.0029638795246400562
          -0.0014988759222374082 -0.00020637188422734098 -0.0018550172353621885 -0.0018317379675432122 -0.0012197462306575702 -0.002288959796998391
          -0.002232348165496223 -0.0014347436000141656 -0.0017948950598896118 0.011024779364793957 0.01957709503494698 0.0070786985257225155
          -0.002180987857922645 -0.0022041536984032106 -0.0011068794724193864 -0.0007564216673756619 -0.0025618993888052444 -0.0019616919302132274
          -0.0016713066944342714 -0.0003987452302469663 -0.0013648171843412271 -0.0014828700066047418 -0.0011133203135988978 -0.0007061161290646822
          -0.0019082710100883915 0.00006055666991366948 -0.0017975888011667607 -0.002472848639842873 -0.0009127697677913105 -0.001101334075908511
          -0.011307842273213353 -0.019793230521699456 -0.00915778157649072 -0.002809008666398216 -0.0005013746111232065 -0.0011277098388189355
          -0.0009104279871134935 -0.002442924719145978 -0.0005897408944841587 -0.0003830562508566615 -0.0008902958647576398 -0.00010452672609595481
          -0.0011427067873039931 -0.0025645638184537134 -0.0013541817064242068 -0.0015770116743532014 0.00002190346642372276 -0.0006520129706517608
          -0.0011102400712026395 -0.0014878944964555885 0.00011616214811827064 -0.0010786484536078333 -0.0008848340288087897 -0.0012642948686698574
          -0.0024924602827320896 -0.0008144369311091637 -0.0014051128381780131 -0.001916668793805698 -0.0013048902720576017 -0.001841676530011771
          -0.001055850743477471 -0.0006241850837822582 -0.0018801169878788215 -0.0017926874600977527 -0.0003864836900357993 -0.0010173027704620807
          -0.00003998933053228626 -0.002725475716397696 0.0015494804854832012 -0.002695276333429142 -0.00010233383845115185 -0.0019735222466170654
          -0.0022711355330504723 -0.0006277783902208789 -0.0013159824561963518 -0.0033499122141504856 -0.00469856892435061 -0.0026515060225316134
          -0.0027446168723448405 -0.0035978452831439967 -0.0012816279906897599 -0.003822350327821411 -0.005319306420275893 -0.003042481572451905
          -0.0028095249987303283 -0.0013959383445554252 -0.0011156418146471836 -0.002524392365907513 -0.0035330767282024667 -0.0023853390765342652
          -0.002876680746879634 -0.0035411916868985926 -0.0007107197739033566 -0.0012550160962092605 -0.001128145190684382 -0.0020402073542014065
          -0.0022714655343571977 -0.004354938009678122 -0.0010394853811028781 -0.002394397174327878 -0.002246874552975342 -0.0037105601672173805
          -0.003844739859523827 -0.0017119391868209988 -0.0013658830615241868 -0.002632556708592748 -0.004068330330662562 -0.0016396876028164087
          -0.001807409684523975 -0.001870237042911782 -0.0008864289543861759 -0.0014036839985118732 -0.0015203125022225095 -0.0005230032160872256
          -0.0010472845166988876 -0.0027068054765599925 -0.0022618130469069797 -0.004669015782042152 -0.001048534004139512 -0.0022488431850860024
          -0.0021865548612689523 -0.0022778344115863547 -0.0011384119469877163 -0.0029553605891736723 -0.0038839972469464357 -0.0014030675893090816
        </DataArray>
        <DataArray type="Float64" Name="resid_y" format="ascii" RangeMin="-0.7569730294371609" RangeMax="0.9554891531993428">
          0.00006286936076270455 0.00011031358040747286 0.00019097687644897138 0.00005590473035038679 0.00013147360002047082 -0.00009570768224542725
          0.0005125982713570093 0.00002350310536519684 -0.00007963450086803658 -0.0002788039840339318 0.00013355927049274463 0.000001840399568353579
          0.00013911317623671593 -0.00007212680046900233 -0.00002262652395504383 -0.00013651819561230627 0.000291763534723162 -0.0002271337452904726
          -0.0005084695743592382 -0.0002508034961771488 -0.00048416455064226316 -0.0007404623830995216 -0.0006420987365521602 -0.00035851582999441023
          -0.0004020489877917255 -0.0005932759969260182 -0.0007003780536697368 -0.000954603982581112 -0.0003469638757536836 -0.00040347855016494016
          -0.000412493654215515 -0.00007129265399784257 -0.000018472311247519357 -0.000684095473133528 -0.0007497282067409489 -0.0000455526366539144
          0.00013540253410160297 -0.0014894511160061935 -0.00022635028842178662 0.00017355968005428046 0.00020449775058795083 -0.0005140753583691565
          -0.0005325777151458932 -0.0008220823671781785 -0.00015118095465527226 -0.00014279798735228333 -0.00014666649366119888 -0.00005164360469353535
          -0.00005610460176666554 -0.00007891430459752713 0.0005867618794337393 0.00020903375649772293 -0.00011448704832364709 -0.000029831781981473626
          0.0015782187353555743 0.0004185307447840403 0.000051914310887454795 0.0001415965747021547 0.0009261086359626802 0.00026329932429954017
          -0.000037929712030787543 -0.00010011248308979676 -0.00016849119162908044 -0.00006865635584824697 -0.00016681257031019026 -0.0002056681041167352
          -0.00015698729230750885 0.00021240082579453146 0.0000373552911910463 0.00004638015960273939 0.00011476760548058407 0.00023052088309372804
          -0.00021707870751694336 0.00004928147113449077 0.00011601059878843523 0.0003252706057491894 0.00016903674680987524 0.000047917058598953566
          -0.00012699154976682225 -0.00009342091553737886 -0.000020659855171827144 -0.0003328411969148737 -0.00015570308207786543 -0.00015619086958312822
          0.0002921579541098687 -0.0004184115683535661 0.00009871564951249856 0.00006318433409563395 0.0003214699509426905 0.00006928400040959876
          -0.0002879521027166765 -0.0006698371891789984 -0.0010187630265917763 -0.00019694004450721003 -0.0006829815353731894 -0.0017038964562447745
          -0.00014961492865589454 -0.0005893624417895316 -0.001174122932149274 -0.000009053892195021174 -0.00003701651174694426 -0.00011861833899499963
          0.000063806874371658 -0.00011087480140813816 -0.00011154419944174945 -0.0003585191932134607 0.000007754785253583085 -0.0000312315965188964
          -0.00003993560530290378 -0.00007950525327036356 -0.00005285455805481565 -0.00008778997005778888 -0.00012167199110600657 -0.00015853726698829285
          -0.00005033782278786314 -0.00017374847962066398 -0.00014012659707643427 -0.00034395798130200383 -0.00003826569916965013 -0.00006953242964523321
          0.00005135575294380745 -0.00003959184884452793 -0.000029695427027513766 0.0001752051121542697 0.000044934955119757536 -0.000048543711205079054
          0.0002449181280501367 -0.000012150901797541858 -0.000023073016486477305 0.0000734818939691767 -0.00006620192858236562 0.00020852733867204876
          0.00016318788369561188 0.00019914533541004475 0.0005107943011385119 -0.00000355627496888538 0.0006072935010143776 -0.0002577895633243312
          0.00046459350078349726 -0.00013322206607203901 0.00006468875387117407 0.000009167467069387536 0.0002558494164693337 0.0000591820218009409
          -0.00003430518759311996 0.00007879173904237757 0.000022636251149982245 -0.000017649653441725865 -0.0003614670135486664 0.00007486822437785534
          -0.00012695759638406412 -0.00021933886319285 -0.00020921509240784397 -0.000043428350700314144 0.000268466080714333 0.0007151275673991098
          0.005765773833482396 -0.000105633549592421 0.00010980379831876386 0.0012842517408138687 0.006979599895124977 -0.0000950856639204134
          -2.5498785870270435e-7 0.00036867832014592095 0.0007433893932729807 -0.0002612917011826782 -0.00024223201811565676 -0.00038206390099045084
          -0.00005795627057683661 -0.0003832805228743963 0.0002495535746903782 0.00004646139125029369 -0.0001332278548081267 0.00006747365133642769
          -0.2843675827510076 -0.3342936342867257 -0.5918211362749051 -0.6941040061162164 -0.3490942094260759 -0.42069857491525187
          0.00007004774831492755 -0.00037971329218965816 -0.00007960870608147985 -0.000051471996898200256 0.00012309526084333666 -0.00036863495813074104
          0.000009252835914783097 -0.00000689673617879083 0.0005648667199195101 0.0002034488051941563 0.0003580350792119352 0.00022674157343607892
          -0.0005958748440731965 0.0003433999166355152 -0.0008160368501498039 0.0007077607813311855 -0.00032383874334684926 0.00010785986776787153
          0.00016846085630170538 -0.00013098220316293263 0.00026714383222253835 -0.00023888124185485193 0.0002772115338145059 0.0000762902128969567
          0.0005773550596433058 0.00043716346379810145 0.00026992856689145306 0.00007094701724011387 0.00016314637715181268 0.00024683907678899053