<?xml version="1.0"?>
<VTKFile type="UnstructuredGrid" version="0.1" byte_order="LittleEndian" header_type="UInt32" compressor="vtkZLibDataCompressor">
  <UnstructuredGrid>
    <Piece NumberOfPoints="819" NumberOfCells="454">
      <PointData>
        <DataArray type="Int32" Name="libmesh_node_id" format="ascii" RangeMin="2316" RangeMax="5735">
          2316 2317 2318 2319 2320 2321
          2322 2323 2324 2325 2326 2327
          2433 2434 2435 2436 2437 2438
          2439 2440 2441 2442 2443 2444
          2598 2599 2600 2601 2602 2603
          2643 2644 2645 2646 2647 2648
          2649 2650 2651 2709 2710 2711
          2712 2713 2714 2715 2716 2717
          2718 2719 2720 2766 2767 2768
          2769 2770 2771 2772 2773 2774
          2775 2776 2777 2808 2809 2810
          2811 2812 2813 2814 2815 2816
          2817 2818 2819 2852 2853 2856
          2857 2860 2861 2970 2971 2973
          2974 2976 2977 2991 2994 2995
          2998 2999 3002 3081 3082 3083
          3084 3085 3086 3087 3088 3089
          3090 3091 3092 3187 3190 3193
          3241 3243 3245 3270 3271 3272
          3312 3313 3314 3315 3316 3317
          3495 3496 3497 3498 3499 3500
          3501 3502 3503 3504 3505 3506
          3765 3766 3767 3768 3769 3770
          3852 3853 3854 4470 4471 4472
          4584 4585 4586 4587 4588 4589
          4635 4636 4637 4638 4639 4640
          4641 4642 4643 4644 4645 4646
          4659 4660 4661 4662 4663 4664
          4722 4723 4724 4782 4783 4784
          4791 4792 4793 4794 4795 4796
          4797 4798 4799 4812 4813 4814
          4815 4816 4817 4818 4819 4820
          4833 4834 4835 4836 4837 4838
          4848 4849 4850 4851 4852 4853
          4896 4897 4898 4899 4900 4901
          4911 4912 4913 4935 4936 4937
          4938 4939 4940 4944 4945 4946
          4947 4948 4949 4950 4951 4952
          4953 4954 4955 4956 4957 4958
          4992 4993 4994 5007 5008 5009
          5010 5011 5012 5013 5014 5015
          5016 5017 5018 5019 5020 5021
          5025 5026 5027 5028 5029 5030
          5040 5041 5042 5043 5044 5045
          5055 5056 5057 5073 5074 5075
          5079 5080 5081 5088 5089 5090
          5094 5095 5096 5103 5104 5105
          5151 5152 5153 5160 5161 5162
          5169 5170 5171 5178 5179 5180
          5187 5188 5189 5202 5203 5204
          5205 5206 5207 5208 5209 5210
          5211 5212 5213 5214 5215 5216
          5217 5218 5219 5220 5221 5222
          5223 5224 5225 5226 5227 5228
          5229 5230 5231 5232 5233 5234
          5235 5236 5237 5238 5239 5240
          5241 5242 5243 5244 5245 5246
          5247 5248 5249 5253 5254 5255
          5256 5257 5258 5259 5260 5261
          5262 5263 5264 5265 5266 5267
          5268 5269 5270 5271 5272 5273
          5274 5275 5276 5280 5281 5282
          5283 5284 5285 5286 5287 5288
          5289 5290 5291 5292 5293 5294
          5295 5296 5297 5298 5299 5300
          5301 5302 5303 5307 5308 5309
          5310 5311 5312 5313 5314 5315
          5316 5317 5318 5319 5320 5321
          5322 5323 5324 5325 5326 5327
          5328 5329 5330 5334 5335 5336
          5337 5338 5339 5340 5341 5342
          5343 5344 5345 5346 5347 5348
          5349 5350 5351 5352 5353 5354
          5355 5356 5357 5358 5359 5360
          5361 5362 5363 5364 5365 5366
          5367 5368 5369 5370 5371 5372
          5373 5374 5375 5376 5377 5378
          5379 5380 5381 5382 5383 5384
          5385 5386 5387 5388 5389 5390
          5391 5392 5393 5394 5395 5396
          5397 5398 5399 5400 5401 5402
          5403 5404 5405 5406 5407 5408
          5409 5410 5411 5412 5413 5414
          5415 5416 5417 5418 5419 5420
          5421 5422 5423 5424 5425 5426
          5427 5428 5429 5430 5431 5432
          5433 5434 5435 5436 5437 5438
          5439 5440 5441 5442 5443 5444
          5445 5446 5447 5448 5449 5450
          5451 5452 5453 5454 5455 5456
          5457 5458 5459 5460 5461 5462
          5463 5464 5465 5466 5467 5468
          5469 5470 5471 5472 5473 5474
          5475 5476 5477 5478 5479 5480
          5481 5482 5483 5484 5485 5486
          5487 5488 5489 5490 5491 5492
          5493 5494 5495 5496 5497 5498
          5499 5500 5501 5502 5503 5504
          5505 5506 5507 5508 5509 5510
          5511 5512 5513 5514 5515 5516
          5517 5518 5519 5520 5521 5522
          5523 5524 5525 5526 5527 5528
          5529 5530 5531 5532 5533 5534
          5535 5536 5537 5538 5539 5540
          5541 5542 5543 5544 5545 5546
          5547 5548 5549 5550 5551 5552
          5553 5554 5555 5556 5557 5558
          5559 5560 5561 5562 5563 5564
          5565 5566 5567 5568 5569 5570
          5571 5572 5573 5574 5575 5576
          5577 5578 5579 5580 5581 5582
          5583 5584 5585 5586 5587 5588
          5589 5590 5591 5592 5593 5594
          5595 5596 5597 5598 5599 5600
          5601 5602 5603 5604 5605 5606
          5607 5608 5609 5610 5611 5612
          5613 5614 5615 5616 5617 5618
          5619 5620 5621 5622 5623 5624
          5625 5626 5627 5628 5629 5630
          5631 5632 5633 5634 5635 5636
          5637 5638 5639 5640 5641 5642
          5643 5644 5645 5646 5647 5648
          5649 5650 5651 5652 5653 5654
          5655 5656 5657 5658 5659 5660
          5661 5662 5663 5664 5665 5666
          5667 5668 5669 5670 5671 5672
          5673 5674 5675 5676 5677 5678
          5679 5680 5681 5682 5683 5684
          5685 5686 5687 5688 5689 5690
          5691 5692 5693 5694 5695 5696
          5697 5698 5699 5700 5701 5702
          5703 5704 5705 5706 5707 5708
          5709 5710 5711 5712 5713 5714
          5715 5716 5717 5718 5719 5720
          5721 5722 5723 5724 5725 5726
          5727 5728 5729 5730 5731 5732
          5733 5734 5735
        </DataArray>
        <DataArray type="Float64" Name="resid_x" format="ascii" RangeMin="-0.009903550484912316" RangeMax="46.971666221458285">
          -0.00014052804424125043 -0.000037337286267202785 0.000001901400541459708 0.00001060651348083752 -0.000296654761656967 -0.00013479275727412698
          -0.00015781360567146407 -0.0002983482304941276 -0.0018497866338993418 -0.0011475718685076686 -0.0009296865530181719 -0.0017919368906493816
          -0.000010425555425186417 0.000140306025350867 0.00035639027947453883 0.00044631273947359773 -0.0001577228946230136 0.00006649363354505056
          -0.0002967671766294089 0.00009119414545111226 -0.0018746920360932506 -0.0025331221611732957 -0.004263604602092741 -0.0034877675186879564
          -0.0017721097052447732 -0.0010351057301277722 -0.00015391638986272937 0.00006290959144628072 -0.0028852427590440044 -0.0023217812820096606
          -0.0006087719144325376 -0.0011280406024951617 -0.00260968931369554 -0.00007682838800704417 -0.0012430541493735348 -0.00021117835545503283
          -0.0038094093352771807 -0.004419087973380087 -0.003611026348671942 -0.00001779992951794762 0.000056235649841696045 0.000023977005260800155
          0.00021316162297502217 -0.00019559178204101024 -0.00024446380127240985 -0.00028416235476047547 0.00003277059311912467 -0.0013287965275308178
          -0.0008802538621583977 -0.0014785866757289767 -0.0018608497069045882 -0.000014344040219604892 0.000008102236567886223 -0.00019092980180435148
          -0.0001232762913216945 -0.00023152563493678002 -0.00009187605981519908 0.000018079338717669202 -0.00042441573738916105 -0.000664612048820068
          -0.0006952989607649229 -0.0008771388431498828 -0.0016352118823448336 -0.0015209345984681377 -0.00047701546746736767 -0.0018095850321451223
          -0.000638882406850172 -0.0001315651702249454 -0.0005221380566826639 -0.0024517196627100724 -0.0021515245014605 -0.003678204826574216
          -0.002153135484977753 -0.00006973657781550457 -0.0021519541294896527 -0.0028243806644665526 -0.0012656763250218361 -0.0018178848865826325
          -0.0007913907347738558 -0.0028929811218816326 -0.0017575392542363844 -0.003198151879342248 -0.0025346180520902095 -0.00035158340532603916
          -0.0035075284324292966 -0.0026714174551951686 -0.003149304878954595 -0.0012452599182060098 -0.0011490994792300313 -0.002242387782823485
          -0.0023411731104179268 -0.001479680416689888 -0.001418438330135885 -0.0003428571215211562 0.00001979115861794334 0.0002375599279269558
          0.00009947629176376704 -0.00007028324841229505 -0.0000025027036357760934 -0.000017692067665553424 -0.00007744438509355023 -0.001637761916682301
          -0.0014191356303123737 -0.00291934734773891 -0.002782041733803031 -0.002875920212926708 -0.003664226167455098 -0.0022156806427959808
          -0.0010754081402817306 -0.0023415612358483884 -0.0015069420607058959 -0.0020883459941867244 -0.0027659785510536494 -0.0028594833151665
          -0.0012475823727458035 -0.0006776263546406369 -0.00020746827465023543 -0.00023262931494860695 -0.002098048320884338 -0.0014190884104290369
          -0.0015916880031738856 -0.000002571690336239385 0.00016317619154193608 -0.0011045240457114858 -0.0033869759718356818 -0.000032225456084944426
          0.0002661953302895981 -0.0033286315950142864 -0.0025100567798066464 -0.0012482307850643082 -0.0013364054968114658 -0.0031218010343199154
          -0.0018401136761507786 -0.0013056549459279365 -0.0006433288584872798 -0.0004822447607241154 -0.0016477830989920506 -0.0013427737040366816
          -0.0006163269330334842 -0.000495593785899473 -0.0007109793995230262 -0.0007006070807591414 -0.00014642250601326623 -0.0011558876679051977
          -0.0021178737719935725 -0.0014699713862471597 -0.0032565236812942544 -0.0027449431741093377 -0.0018063729914024051 -0.001357831216599159
          -0.00045914501576538314 -0.00012852922484807294 -0.00027958648626646987 -0.00020746410328875697 -0.0004091193219902811 -0.00009847645872174127
          -0.0010560738998113273 -0.0012071059774312332 -0.00043420127958615495 -0.0004711928306111446 -0.0019375834565709127 -0.0012963885449543966
          -0.0010504010355179005 -0.0004618425063567244 -0.0006994042667827216 -0.00233231209000051 -0.00047193263212719216 -0.0018030323671922588
          -0.0012752746290800587 -0.00022196318848966 -0.0007653290132239032 -0.0030824190994906964 -0.0006515521835113169 -0.0017569104972707805
          -0.0017660471144615997 -0.0014193953284369343 -0.001151093314733842 -0.00008691566404417372 -0.0008284291708022806 -0.0007060453606966277
          -0.0018392624059213603 -0.0007530782264035807 -0.0013720645055057545 -0.0022611345308565234 -0.00039745347670105957 -0.0014836066812655702
          -0.0022375985921874175 -0.0014518874000608584 -0.000263074242834449 -0.0003225484035560555 -0.0012961278150269706 -0.0016166126606718123
          -0.0004643175938392474 -0.00032860441055415635 0.0000016168258234472432 -0.00036944880796152546 -0.002531847613854943 -0.0023754826323525435
          -0.0005674076414337037 0.00008179902147187335 -0.00007398020916049575 0.0000012961618782725282 -0.0005905152095388999 0.0001586378308484626
          -0.0011810786510824123 -0.0004466235733238122 -0.001081409341430195 -0.0011802433877559082 -0.002036750070221416 -0.0013087763098376115
          -0.0029255433790567054 -0.0032744944758889005 -0.002688569947698838 -0.0010587208328027842 -0.00037048255143945497 -0.00033173538126707314
          -0.00000579154791946479 -0.0010074973696916345 -0.00020774897776876244 -0.000005648614507691718 0.00019126199337637928 -0.000011364422783710637
          0.0004300117622855204 -0.0005042874411160803 -0.00005874056017596274 -0.0012044443195700083 -0.0008759393404305094 -0.001105347574152482
          -0.0003217076321946344 -0.0002406661685605549 -0.0003876325887151033 -0.0007208873978941099 -0.0007083717730824723 -0.0006454929252202035
          -0.0004254420112439483 0.0003126344021104899 -0.00019947720808843883 -0.0029939693550922186 -0.0018689286819686401 -0.0005066616457245487
          -0.0004875997895750217 -0.0013954773472795168 -0.0018549647151213655 0.00019480257827497738 -0.00015148617312021884 0.00003646709977145335
          -0.00018058425193601124 -0.00016194012021619741 -0.00006289514926827167 -0.0003903423569178166 0.0001577680547928395 -0.000166362990381419
          -0.0007536709096993555 0.0001474903546547779 -0.00028490530345903764 -0.001855573335047822 -0.00045340807132099314 -0.0009443882792332658
          0.00033189347043371953 0.0001977441942750957 0.000385094654049567 0.00045333526445379135 0.0002597932327734753 0.00014452041013424122
          -0.00010566049938276478 0.00026529471642522395 -0.000050517425404628113 0.0005143548192672043 0.000423579582492728 0.0003830170799927757
          -0.002605025094584157 -0.00046410293863807794 -0.0013563224038009025 0.0005245722754336768 0.00034762966916712656 0.0002565223804884553
          0.0002092562995792413 0.00039273297321607004 0.00016499519478596625 0.00033526509449366415 0.0011414065341881496 -0.00034829567107053094
          -0.003031168518026206 -0.0022290874231920554 -0.0015159757528060425 -0.00185426736616634 -0.000830272599273485 -0.0011688564593335116
          -0.0009089938712421031 -0.00025188572617906857 -0.0010430313244214062 -0.0015669536017952623 -0.0021331717602492972 -0.001848428540228042
          -0.0007540782982378147 -0.00023893773097327653 -0.0005873434118317533 -0.0014980510421551685 -0.0007116698613103267 -0.0032471779213025798
          -0.0013120656704579403 -0.0024896318549672003 -0.0009936455145176382 0.00010798048382021364 0.0001828618694030837 0.00021589555144707617
          0.0002867208551950995 -0.0008700295623444987 -0.0001571253502774539 -0.0007625721915385242 -0.0001285310071992285 -0.00038656962628813574
          0.0001916562656898435 -0.001821695778929211 -0.0010173849557713055 -0.001083585011297572 -0.00035329855458954285 0.000115509056044516
          0.00025435917582861123 -0.0016584139107180818 -0.0006260915102327402 -0.0016138947993269426 -0.0007796196528548904 0.0000796457358429592
          0.0002941367003508333 -0.000664422898955408 0.0000897207895853569 -0.0010118846400271053 -0.000326472263491695 0.000048340776370281446
          0.00014737381111018522 0.00043809785426063286 0.000979716073652881 0.00020120662117051324 0.0007773768997125785 0.00005740683195298857
          0.00004595303711774079 0.0001927689055829518 0.000923355168445994 0.0003105940680896424 0.0010122561708634237 0.00008833590042378603
          0.00021229815169299115 -0.00043867634437333436 0.0003658136897097819 -0.002310534575457268 -0.0035201215165159283 -0.0033394354661524517
          -0.000313702746401745 0.00019120345085177348 -0.0014718929343757736 -0.0014804224721114423 -0.00042321082790763853 -0.002748937868526369
          -0.0021065010284715413 0.00026386883913787074 -0.0024542166362664375 -0.00260430210618523 0.00028886409206307917 -0.0015717694810604144
          -0.0018766518755253259 0.00007314522776269428 -0.0010824395918813678 -0.001124737060486325 -0.00008784740825262816 -0.0021559915891771197
          -0.0016496882317120765 0.00011915795449368716 -0.003999825198455653 -0.0023000481037911413 -0.002979311124441608 -0.003023995190254425
          -0.000604150555664873 0.0002575366916630628 -0.0016732186267010007 -0.002077912249042413 -0.00017660326852109165 -0.0025064156795853165
          -0.002469310655069279 0.00021056406481889667 -0.0018394129042889062 -0.0024522441128187467 0.0002013039357642299 -0.0012527952100391815
          -0.0018916673016757812 0.0001897002128483649 -0.0014254292263125024 -0.002001684746437249 0.00003365415643585834 -0.002480366008528634
          -0.002423070777878067 0.0002799785908713659 -0.003901403571607176 -0.0019340669506959784 -0.0019609913354941 -0.0025764906534320176
          -0.0006070225614429603 0.00034520692869932645 -0.0016372745806538802 -0.0020994572363051134 0.000044284097015179213 -0.0019481930649991597
          -0.0020252321264511153 0.0003544034503555338 -0.0010941504325838736 -0.0017379545420315168 0.00033963186089813746 -0.0007109481940030804
          -0.0013890101907563235 0.0003177819830124662 -0.000997464949691107 -0.0015487067861279513 0.000013440655246554911 -0.0017670360526977902
          -0.0016866616729025452 0.0004222564883598068 -0.0022418949490656814 -0.001415938617011392 -0.0006714653279118465 -0.0029641815885703693
          -0.00047747840555700805 0.0004979150757193906 -0.0019384334674548143 -0.00220346638323754 0.00031100090923175117 -0.001983486368379417
          -0.001984032195606389 0.0006152364811651267 -0.0010936718112191102 -0.0016199432311143624 0.0005699321055949724 -0.0008394902207342625
          -0.001449612348967122 0.0005204390857862506 -0.0008209879569509582 -0.0013070440980413878 0.0002604015070790666 -0.0012579051222978421
          -0.0011056691554838238 0.0005057774256620462 -0.0016221303255576913 -0.0025812617326526066 0.00028792052071224816 -0.002377345619843041
          -0.0006093949932015619 0.0005510736493476998 -0.0031071471194774603 -0.00044640244170679466 0.0007288223880834721 -0.0020268401110055123
          -0.0024319238707146695 0.0006678840954972287 -0.0019492338462381298 -0.0023783111173028004 0.0010179200329147875 -0.0010669340345401679
          -0.001920206188309237 0.0009302757199218803 -0.000905569994259281 -0.0017760796450616567 0.0007476124874212786 -0.0005787904615512929
          -0.0014797619486675018 0.0003898321584703268 -0.0004368183176257645 -0.0006467684930591133 0.000502512678639988 -0.00030671013306182715
          -0.0014560165193273633 -0.0011894173486268755 -0.0022422818493943453 -0.0005662873224849818 0.0007024231785415225 -0.0014634134564968093
          -0.0015167846353900671 0.0009808046166277506 -0.001514795190411533 -0.0021801043444629187 0.0014838794957530155 -0.0007798279541137987
          -0.0020594637330919596 0.001683017733117964 -0.00043663578858854635 -0.0016495264602411908 0.0015357163550984154 -0.0005251783034516677
          -0.0015432487854782906 0.0011562994659346515 -0.0005575658635095238 -0.0016791352580511898 0.000551131081530265 -0.001019407416418261
          -0.0015288779464679436 0.000307312099923962 -0.0013053491038093057 -0.0019215777117445043 -0.0023688109806059288 -0.002059499184799307
          -0.00031965251393195615 0.0008090189066134457 -0.00022159269619947963 -0.000542545659181215 0.001800080800583359 -0.00013639228412820614
          -0.0007727763960279077 0.002654364427051803 0.00032405888238606906 -0.001109509335270431 0.0028135525959811503 0.0004812293512799215
          -0.0009814162649188773 0.002469589803112626 0.0005566723292034226 -0.0009826356648865442 0.0016448337945540459 0.00041133715875307786
          -0.001757420689095568 0.00022519666755016488 -0.00039692745687247566 -0.0019114056625912923 -0.00043104115785919106 -0.0008515196981973006
          -0.0009980569132164163 -0.001599586420169885 -0.0014139858710411346 -0.002700339490102621 -0.004568788873100971 -0.002457234948435527
          -0.004420657188603627 -0.007279714402422144 -0.0038149611403994754 -0.005960316872318572 -0.009136378083288932 -0.004731379858375462
          -0.00661169865061062 -0.009903550484912316 -0.004820771297003645 -0.005928322698780519 -0.009321971254678374 -0.004264344849223889
          -0.004484257926380408 -0.007506848524663212 -0.003239092953862155 -0.0031425767055290876 -0.005162338318664084 -0.0021184465267483077
          -0.0017052090533598019 -0.0026785944015896845 -0.0010261195592917716 0.0004216850329665789 -0.00046532763157891566 0.0001347678508540895
          -0.000031482224571277584 0.0012127119226761351 0.00026413142357384345 -0.0036490837736717907 -0.0001257693283402972 -0.0031990084858541934
          -0.0038004402373683632 0.00010410273798733272 -0.004050259912576237 -0.0024313658008878747 0.0002455477244769355 -0.0019462947030586264
          -0.0017565937784951302 0.00033866205519927917 -0.0013610771683776335 -0.0005156581815199957 0.00020656461658141723 0.00010873887339712951
          -0.0015600956576218294 0.00006759632986153008 -0.0005286409771887435 -0.001802530711549899 -0.0005094527902285151 -0.0005459856355685133
          -0.0007342793141482673 -0.001209338358720835 -0.00018408941782599442 0.0008050767821519145 0.00018663926634943095 0.00007021567067866386
          0.00013205970109453347 0.0017623019554164898 0.0003844928921044044 -0.0033971765977351964 0.00005732463156427059 -0.00244101512720718
          -0.004567770214711331 0.0003641315442823867 -0.003077452650988022 -0.002446865752213867 0.00040284701678139356 -0.0015053032788632237
          -0.0018704590283959988 0.0004910433509159873 -0.00032412601874831637 -0.00020637284334590333 0.0003932155394963388 0.0006334342235287949
          -0.0009871626581343662 0.0002120307812205624 0.00039553100207001535 -0.0012540502765094885 -0.0004554394853348853 -0.00029053992154004504
          -0.00016912642778610376 -0.0008497476258995107 0.00009436357983005905 0.001417750653846639 0.00021938074934979568 0.000024925118285779035
          0.00011266112929853023 0.00018080546549015253 -0.0012770900475480573 -0.002554414751912759 0.00005759728616183679 -0.002494982084428443
          -0.0039853083168530645 0.00038261685454266114 -0.0020686280149408987 -0.0019206538322507072 0.00039474373663495044 -0.0010223110436022864
          -0.0013920534178311073 0.0004346988925032491 0.0005151358832780062 0.00039074700698193965 0.00036124610696397497 0.0018456521831016204
          -0.000025185507356084713 0.00007442640268529033 0.0009235287063340536 -0.00047321233901520543 -0.000410395788607687 0.00027955340650187566
          0.0004869883172666789 -0.0006192318118607432 0.00017497332093885376 0.0008496195025866626 -0.0012216544264020968 0.000016136560038404468
          0.0000802666413761699 -0.0005185259755897675 -0.0012600846556622969 -0.0026090316830273963 0.00021612390647085533 -0.0010465720054035899
          -0.0024027447414081138 0.00032221954936417774 -0.001441348636195272 -0.001467104944827824 0.0004902557594768098 0.0002621471500425798
          -0.00008447637944541952 0.0003416720735280876 0.00037374444395332773 0.001092255700536171 0.0004018419927032113 0.0029754597824496187
          0.0011508029394473596 -0.00001774867231674193 0.0015352649472948343 0.000032959328493120665 -0.0004364980031734689 0.00016588347076762489
          0.0007626104669897771 -0.00037787243165254836 0.00021366458266847133 0.0001873852029135037 0.0004825935725492059 -0.00007921512289144061
          -0.000002603494783315341 0.001601893915186281 0.0021570977647424883 -0.0023997614376511933 0.0002930957095514941 -0.0008730995748340575
          -0.001680997512854887 0.00044194973782651914 0.00027143585388778035 -0.001064832248756531 0.0002576331463028936 -0.0007136126586395619
          0.0007934310768948905 0.0003258575365148175 0.0018962241405873215 0.0021642809034378985 0.00012748163802100976 0.0022059238538503223
          0.0017792790393578173 0.00010839499795700647 0.0021137100127237574 0.0004829923718006057 -0.00045189586357707867 -0.0001546361372373184
          0.0004641727843495147 -0.00023658202665899353 -0.000058020890080001664 -0.00008411273172015399 0.00022359776545144427 0.000045608092415605483
          0.000030415688003770924 -0.0003374364722432688 -0.0011692920825847608 -0.0001982868296384055 0.0004512209310973958 -0.0010358876441678433
          -0.0015934638298169546 0.0003803016812931048 -0.00042307629406579395 0.0006466653660304189 0.0002462465043748807 0.0006887118552150184
          0.000057893425916333285 0.00025670004515987443 0.00035074318605055055 0.0030176833883750476 0.00021329598355102064 0.002745208291996093
          0.0019278830000306613 -0.00007703083845100878 0.0012375466085963183 0.000459175463186412 -0.00019141993458759998 -0.00014801693992794185
          0.0002797859733796315 -0.0002366407068219445 -0.00042114992123565287 -0.0011069482224908 -0.002646366755724827 0.0011513758407986074
          0.0019176839278021163 0.000223819782197765 0.0009602249279474506 -0.0007340369621182674 0.0020207560754545995 0.001632476172407138
          0.0015842974503925689 0.0022348306395656437 0.0008141719051355523 -0.00005836477893872427 0.002020236111116347 0.001473833383709433
          0.0030126742719591704 0.0020861236336742195 0.0010545389276401806 0.001965173672568099 0.001100378466459162 0.00183478524206393
          0.0022616652032372286 0.00028498264344278823 0.0012509768671638 0.00011769902322811276 -0.00018201296598796546 -0.00040073398203510635
          0.00019282357785677107 -0.00012415277246802248 -0.000311566851955547 4.668761614666176 8.716132274883341 9.261846003071414
          16.430079946015436 6.038016029021958 9.789659050050354 3.477172674713392 4.733830690035938 1.0420622362831757
          0.0019273842521858597 0.005490133246020434 -0.0005475115392918894 0.0019050324436058474 0.00338462013795926 -0.0004647568805218327
          0.0012980741905899151 0.0016544082117153636 -0.0006739141394351833 0.0023857307105483727 0.0007695340952800223 -0.0002808213984302199
          0.0015245419314577902 0.0006258051642049622 -0.00038783733419833766 0.00037502827496638247 0.0005591383831102803 -0.00030556392830760615
          0.0002683538060495039 0.0005207988651729778 0.00006205855030039231 6.874864462446553 15.87474267009602 13.924171098976128
          31.644411934282743 13.157108941651993 26.25066405859496 21.5315091956288 42.13847170262865 23.244693043416355
          23.48386967884033 46.971666221458285 23.52464646362018 23.10750982576556 46.215005248462376 23.104514976133913
          21.988294990251276 43.97718705023395 21.98704960208877 20.6445721649094 41.28805181507793 20.64000229296903
          19.28611276645066 38.571672335188055 19.28235112684751 18.26218519154844 36.523735376316225 18.255885488888293
          8.961193958602372 17.92194562692667 8.956966857208013
        </DataArray>
        <DataArray type="Float64" Name="resid_y" format="ascii" RangeMin="-3.252116841621941" RangeMax="3.447796262628434">
          -0.00013712529491771708 -0.0000744470731677549 0.00010085425529498745 0.00022739105542246563 -0.0003136292041555633 -0.0001724528781990864
          0.00009465915212231515 -0.00015216482227235761 -0.000310151673035608 -0.0016915140289003039 -0.001290710526765864 -0.0016408486920666265
          -0.000018082741570127348 -0.00016427436026766364 -0.00014724963691636894 -0.0001398065155663042 -0.000004982621849114466 0.000023159619727116873
          0.000049987543677854074 -0.0002949005165824581 0.0005241656455454644 0.001120090815305834 0.000894985374353896 0.0003922848610030949
          -0.0009841835863626802 -0.0007513730153657569 -0.0002815238155370603 0.00009096315166736563 0.0004541240038068439 0.00008486007619238484
          0.0005585181077125689 0.0009201970728179021 0.0001598230153013469 0.0001326009107969206 0.0009958798445571793 -0.000046992025242192925
          0.0009904874895139137 0.0008745827603682532 0.0006415229745206641 -0.000008391203355922333 -0.00004538411169400895 -0.00002384551301698023
          -0.00018106093939204704 0.00007856424752522226 0.00021850196556880488 0.0000611660624077583 0.0003134807508204107 0.000971871148961502
          0.0008907152226239716 0.001654370634657374 0.0017756213451249128 -0.000002605937758731053 -0.00004323026642864304 0.0006581907259391789
          -0.00012944474218505586 0.00008926419816885408 -0.00003535220028694393 0.0005887160184396886 0.00018318006607167397 0.0006368359780281789
          0.0007840731847321616 0.0015441712942153261 0.0013467319248535795 0.00005832999680576486 -0.0003418242334481958 0.00013738864936510553
          -0.00009298722059732263 -0.00017000505402431365 -0.000023585293334654756 0.0009700031179892257 0.00133353762073124 0.0013597817274313556
          -0.000003977993779380462 -0.00025290136760802717 0.0008658903637462911 0.00038206392239786835 -0.000020747545925015043 -0.00032627673790985856
          0.0001184623286945019 0.0006928557220307052 0.0010436722604043602 0.001993762057400872 0.0013711886149944327 0.0017216429394120158
          0.0008409274151218796 0.001032835325805559 0.0005770388073940771 0.0014130649611558046 0.0014748581567688539 0.0019489598644712482
          0.0031987986313867997 0.0015519680359202242 0.002194113940973755 0.00006199658336930591 -0.00009942634574906101 -0.000289681101841716
          -0.00010686360708245593 0.00007574559356771787 0.000025031653522411546 0.00043042402984640963 -0.00001622139669948952 0.001685507622883206
          0.00168703101920634 0.0029647838679637386 0.002218356356478088 0.0023979519858143943 0.0028359475111418217 0.0017461699339411298
          0.0019394456191927749 0.004072444554340478 0.002525511998324355 0.0006598299940880903 0.0004964960920158523 0.0008855293000631925
          0.00004760775150952634 0.0006408989237785406 0.00008270722019794452 0.00022679260248782696 0.000720711931914711 0.0007898284491720808
          0.0001836517428878831 -0.00000818587401257842 -0.00010786694547492565 0.00009232633066834361 0.0003915363523522286 0.00013787050314900684
          0.00021282991780785868 0.0008465343911722434 0.0011411125987414728 0.001278285099613627 0.0018235193548313544 0.0019589088220148543
          0.0010177692721056314 0.0004453534642189991 0.0003614501994817082 -0.00006890462427541419 0.0004134360961280392 -0.00019568549726135115
          -0.00019779501693550916 -0.0005510771017284283 0.0005463080403843718 0.0010345424068314325 0.00036836857408440414 0.0013809825635950589
          0.0013878748630098067 0.001239712099086127 0.0017627754375458132 0.0019229548961036264 0.001374009278917565 0.0011091424682547722
          0.00018309851919983376 -0.000006768157775590214 0.00020113304132795152 -0.000038500182426121424 0.00022542155958465157 0.000010083953401820306
          0.000155185243093596 0.0005233353814796116 0.000001858203988272869 0.0005645247534935144 0.0015838719769813141 0.0011823714795124313