<?xml version="1.0"?>
<VTKFile type="UnstructuredGrid" version="0.1" byte_order="LittleEndian" header_type="UInt32" compressor="vtkZLibDataCompressor">
  <UnstructuredGrid>
    <Piece NumberOfPoints="756" NumberOfCells="468">
      <PointData>
        <DataArray type="Int32" Name="libmesh_node_id" format="ascii" RangeMin="120" RangeMax="2168">
          120 121 122 123 124 125
          126 127 128 129 130 131
          132 133 134 135 136 137
          138 139 140 141 142 143
          144 145 146 147 148 149
          150 151 152 153 154 155
          156 157 158 159 160 161
          162 163 164 165 166 167
          168 169 170 171 172 173
          174 175 176 177 178 179
          240 241 242 243 244 245
          246 247 248 249 250 251
          252 253 254 255 256 257
          258 259 260 261 262 263
          264 265 266 267 268 269
          330 331 332 333 334 335
          336 337 338 339 340 341
          342 343 344 345 346 347
          348 349 350 351 352 353
          354 355 356 357 358 359
          420 421 422 423 424 425
          426 427 428 429 430 431
          432 433 434 435 436 437
          438 439 440 441 442 443
          444 445 446 447 448 449
          510 511 512 513 514 515
          516 517 518 519 520 521
          522 523 524 525 526 527
          528 529 530 531 532 533
          534 535 536 537 538 539
          600 601 602 603 604 605
          606 607 608 609 610 611
          612 613 614 615 616 617
          618 619 620 621 622 623
          624 625 626 627 628 629
          690 691 692 693 694 695
          696 697 698 699 700 701
          702 703 704 705 706 707
          708 709 710 711 712 713
          714 715 716 717 718 719
          780 781 782 783 784 785
          786 787 788 789 790 791
          792 793 794 795 796 797
          798 799 800 801 802 803
          804 805 806 807 808 809
          876 877 878 879 880 881
          882 883 884 885 886 887
          888 889 890 891 892 893
          894 895 896 897 898 899
          900 901 902 903 904 905
          906 907 908 909 910 911
          912 913 914 915 916 917
          918 919 920 921 922 923
          924 925 926 927 928 929
          930 931 932 933 934 935
          936 937 938 939 940 941
          942 943 944 945 946 947
          948 949 950 951 952 953
          954 955 956 957 958 959
          960 961 962 963 964 965
          966 967 968 969 970 971
          972 973 974 975 976 977
          978 979 980 981 982 983
          984 985 986 987 988 989
          990 991 992 993 994 995
          996 997 998 999 1000 1001
          1002 1003 1004 1005 1006 1007
          1008 1009 1010 1011 1012 1013
          1014 1015 1016 1017 1018 1019
          1020 1021 1022 1023 1024 1025
          1026 1027 1028 1029 1030 1031
          1032 1033 1034 1035 1036 1037
          1038 1039 1040 1041 1042 1043
          1044 1045 1046 1047 1048 1049
          1050 1051 1052 1053 1054 1055
          1056 1057 1058 1059 1060 1061
          1062 1063 1064 1065 1066 1067
          1068 1069 1070 1071 1072 1073
          1074 1075 1076 1077 1078 1079
          1080 1081 1082 1083 1084 1085
          1086 1087 1088 1089 1090 1091
          1092 1093 1094 1095 1096 1097
          1098 1099 1100 1101 1102 1103
          1104 1105 1106 1107 1108 1109
          1110 1111 1112 1113 1114 1115
          1116 1117 1118 1119 1120 1121
          1122 1123 1124 1125 1126 1127
          1128 1129 1130 1131 1132 1133
          1134 1135 1136 1137 1138 1139
          1140 1141 1142 1143 1144 1145
          1146 1147 1148 1149 1150 1151
          1152 1153 1154 1155 1156 1157
          1158 1159 1160 1161 1162 1163
          1164 1165 1166 1167 1168 1169
          1170 1171 1172 1173 1174 1175
          1176 1177 1178 1179 1180 1181
          1182 1183 1184 1185 1186 1187
          1188 1189 1190 1191 1192 1193
          1194 1195 1196 1197 1198 1199
          1200 1201 1202 1203 1204 1205
          1206 1207 1208 1209 1210 1211
          1212 1213 1214 1215 1216 1217
          1218 1219 1220 1221 1222 1223
          1224 1225 1226 1227 1228 1229
          1230 1231 1232 1233 1234 1235
          1236 1237 1238 1239 1240 1241
          1242 1243 1244 1245 1246 1247
          1248 1249 1250 1251 1252 1253
          1254 1255 1256 1257 1258 1259
          1260 1261 1262 1263 1264 1265
          1266 1267 1268 1269 1270 1271
          1893 1894 1895 1896 1897 1898
          1920 1921 1922 1923 1924 1925
          1947 1948 1949 1974 1975 1976
          2001 2002 2003 2028 2029 2030
          2055 2056 2057 2112 2113 2114
          2115 2116 2117 2124 2125 2126
          2127 2128 2129 2130 2131 2132
          2133 2134 2135 2148 2149 2150
          2151 2152 2153 2164 2166 2168
          1926 1899 1927 1900 1928 1901
          1950 1951 1952 1953 1954 1955
          1977 1978 1979 2004 2005 2006
          2031 2032 2033 2058 2059 2060
          2142 2144 2146 2163 2143 2096
          2165 2145 2100 2167 2147 2104
        </DataArray>
        <DataArray type="Float64" Name="resid_x" format="ascii" RangeMin="-20.054718501709512" RangeMax="0.05205037668911833">
          -0.00015673873206178968 -8.22812900014514 -0.00025375974254071565 -16.499191973433604 -0.0006601516170219313 -8.331649078407068
          -0.000006981370771264039 -8.243344352377022 -0.000028998062868268448 -16.611430461426966 -0.0006362706427154308 -8.520818493147544
          0.012901489324776527 -8.323563685039055 0.03459186499085476 -16.8830315859894 -0.008124458859533945 -8.864319142282092
          -0.017747694400612524 -8.512264123157092 -0.015977045572381776 -17.308557924713384 -0.005130711077132588 -9.317200797873937
          0.00013232440374189025 -8.78235115167027 0.00020623686124032758 -17.755932117081237 -0.002499626845433589 -9.630589294495957
          0.00013291015719563148 -9.029580031638368 0.00012339887721868337 -18.145262189340965 -0.0023518305810394935 -9.743507867211264
          0.00018897734916833997 -9.254707153648837 0.0002172381668810175 -18.51955708094669 -0.0009488501509622438 -9.643531683239498
          0.0001512826132605838 -9.550271376423073 0.00032188527371701525 -19.01952146272931 0.0022031813633347497 -9.346150860104363
          0.0017972168992699267 -10.112376108400177 0.003218425772253397 -20.054718501709512 0.010630860240282924 -8.864271982305588
          0.006645244748402335 -6.291386102784552 0.011708344919546976 -12.415679656784567 0.018158862538480924 -4.835303882147371
          -0.0030079795265010034 -0.0028991860243428036 -0.0007188775358430988 0.005335083536381902 0.012695820292758064 0.0013758139899460176
          0.017130279877156873 0.017509723235639818 -0.005656148943547379 -0.004628445791587055 -0.01097111011824392 -0.0073606240032990655
          0.0007046696591626045 0.000851494669446673 -0.00458543358649699 0.000850401408558632 0.0010918251545239954 -0.003985783165240342
          0.0008583397086416866 0.0012083940540819071 -0.001182333573875205 0.0009838764523095733 0.0015583108513217425 0.004885696067851164
          0.0026765706715519144 0.004538433753029203 0.01889237082795514 0.006924235556645453 0.012688455185007719 0.030450815349147176
          -0.0001789595538248534 0.002877582649489341 0.002189578938239123 0.02526841975234273 0.038316581657960924 0.012818085382368949
          -0.023179968789745153 -0.05067863744512202 -0.012843261676856343 -0.004229006240528577 -0.0038511124153037812 -0.0056361812890797225
          0.0003902330719087743 0.00032390364530421323 -0.006563043725768658 0.0005878880717320456 0.0007309565081907721 -0.005361512918378608
          0.000742235661433277 0.0010706378049079035 -0.0012348037835998582 0.000987110910572575 0.001616947399341484 0.007060392327707721
          0.0031758047176708715 0.005729156055136464 0.025253905700633794 0.0073452744945371184 0.013910412447861554 0.04082656240611839
          0.01937255096102941 0.017494167194115562 -0.014730693284255914 -0.0020695421834142635 -0.02631947951868341 -0.02107301787194782
          -0.01285874517078156 -0.01294274948519103 -0.006923608130430914 0.00012357819885266963 0.00022773762317651602 -0.007473494741489617
          0.00031831500611545493 0.00044429624241448806 -0.007948145201162049 0.0006809348776952717 0.0010206337856448755 -0.005878618819004977
          0.0008477677097342706 0.0014352854538408621 -0.0004651363054790636 0.0008706997016760809 0.0015141177588811061 0.009215988563685329
          0.0026113713041526765 0.0047401463852514425 0.028462883871353206 0.005579596382706331 0.011052725094646831 0.04069798542549807
          0.013493213891364153 0.004006468864772295 0.00578882556319904 -0.027969233198469556 -0.02467699137189161 -0.006414857617492942
          -0.000037147534703407814 0.0008871740963201091 -0.0074115862564578805 0.00019314258746039314 0.0004662109680930726 -0.008880941602624759
          0.00027529042134766257 0.0006507896409271297 -0.008661210983449408 0.0006835132220643914 0.0012946006744627425 -0.005659952097153642
          0.0008000720370446857 0.0017058299716508074 0.0008789127468062929 0.0008072099234190944 0.0014163391975658968 0.011287261665071657
          0.0020246856683998615 0.003586812345615975 0.029646783336259475 0.0018454774913458927 0.004437354873851662 0.035648031714036854
          -0.0327320114071421 -0.026031179917648473 -0.0060242733180890795 -0.0018033187130703787 0.0010976774606294981 -0.0077588968288981874
          0.0002983614776441712 0.0007436750880605025 -0.009245482396551097 -0.00013080108144336577 0.00007240781045236844 -0.010014485039807397
          0.00014928853214257742 0.00041459989097702987 -0.009010006459829967 0.0004065453135222441 0.0009163977627544284 -0.0051615364624906235
          0.0007500173859655845 0.0016491163605429904 0.0023082967184722136 0.0008577451374955913 0.0016939104015678552 0.013313307782672368
          0.0016652241834904657 0.0032325418888046187 0.03005951682631114 0.0014494658929105064 0.0030639953272917353 0.030317373109581824
          -0.0006182700580303901 -0.0001734596179225889 -0.006807022808990482 0.0005187258025882713 -0.0004968167159935533 -0.008535836492155724
          -0.00029210623337938557 -0.0004793616819531721 -0.010578295674230631 -0.0005047047305106744 -0.0005341641328966418 -0.010619481852991886
          -0.0002700827890116386 -0.00025143164896412884 -0.008779296951851201 0.00005234139826981732 0.0003781110508231933 -0.004174187255606032
          0.0005973961763672264 0.001681269766625526 0.004041868328433118 0.001014054577209933 0.0025908180157161453 0.015273060806419991
          0.0014152564937512935 0.003684288596875085 0.02945042299616052 0.0009277320087558438 0.0028225067525693426 0.025600506770833142
          0.000717490022678291 0.0010266955349891305 -0.008052954657994604 0.0014202295977678858 0.0008797581765094264 -0.009449594195572786
          -0.000329383744982259 -0.0002851035384860978 -0.01090986351274914 -0.0007058833864483915 -0.0009141481133463358 -0.010513083961767755
          -0.000719339305384814 -0.0009788235896790454 -0.007885932101960869 -0.000265018628138769 -0.00020788521069015076 -0.0024295184217599797
          0.00034992561004187905 0.0011049493394326149 0.006301511635306234 0.0015740988119690158 0.003848197888736138 0.018398847289547327
          0.0010094725390326076 0.003941543862571173 0.030368517898032188 -0.0021117341555403346 -0.0028752561264275833 0.020717335595118236
          0.00028767620915370884 -0.00014359709832412193 -0.00826583753664245 0.0006385738224352622 0.0003712882458835054 -0.005892880966821501
          0.0007414578604723054 0.000793853624996288 -0.002379841502210489 0.0005852215745516531 0.0008709288511941082 0.0024145139252125247
          -0.00045743282514010275 -0.0007901858079355506 0.009432616832785179 -0.0010941182490684653 -0.0031034256051150066 0.019775071043306447
          -0.001210064251940146 -0.00474278636475578 0.03280110289804661 -0.0018180455547005536 -0.006060261116974441 0.022087090124201847
          -0.0027073226398080796 -0.00002582825889119178 -0.0026452852330592636 -0.0038372079531806547 -0.004912192193428561 -0.0011075651101740691
          -0.0037315388129747495 -0.0075437881773585125 -0.0012879801960379925 -0.00030777371100981776 0.0017007462080563807 -0.0030801954257845265
          -0.001988495589547723 -0.003386332188995847 -0.004376117040454125 -0.006844700197281782 -0.0033025431884805834 -0.0035785578896547696
          -0.0033387984422993677 -0.001819453058450323 -0.00273001283061422 -0.006223713741843717 -0.003617845402955817 -0.00602462512811049
          -0.0012957006129282467 -0.0013542998974833513 -0.003725228024942115 -0.00031947930248332757 0.004005817298314618 -0.008375307958714995
          0.000026405632650078337 -0.00042200659692126496 0.004426017047171937 -0.011528466043187802 0.00025603870576026977 0.00944812648379989
          0.018517300663633662 0.006239223442963793 0.005389437636882405 -0.0047583755456521715 -0.003172413719241707 -0.0019417052460919404
          -0.002940587102156944 -0.009156687526015506 -0.007605464950363516 -0.00360543620937237 0.001830408492562316 0.015941532867591812
          0.016627259652755244 0.009139557381355523 0.007321402366231189 0.001081928219160977 0.0039107312557729035 -0.0008648617598198127
          -0.001408078977459537 0.00012163270891329958 0.005929533792105701 0.00005543958325815446 -0.0022961230299061164 0.015396888024158617
          0.017290662173956584 0.01244626229952328 0.011861550942570798 -0.0013981782979509694 0.001373570283453751 -0.000547297319920037
          -0.0016062205529349116 -0.005876046054056172 0.001059427392202772 -0.000054101830918251714 -0.002373012958207188 0.007148085962402351
          0.012130714635194773 0.01288685691102981 0.009895131579743421 -0.0019298319384351004 -0.0012960495101930203 -0.004574327475135753
          -0.0021220645937192195 0.004706961976741253 0.008231105676257622 0.0032214351466729463 -0.0010090611018692686 0.003754947430472888
          -0.0010304139342490748 0.008178215788909315 0.013403821435278518 -0.0036555166849453133 -0.0010296734900998444 0.0011179135207948776
          -0.0019031627120261185 -0.007607652191082517 -0.0027203512851642284 0.0009194365525113969 -0.00512931320822127 -0.005055192189838076
          -0.0018409920544813496 -0.0008341778877162531 -0.003265758345651293 0.000561457802386145 0.0027013486753113547 0.00048270693235952233
          -1.7587332424623991 0.0012068250222173615 0.004067695758702916 0.0017066267331593554 -3.3661028255460184 0.001972948395288554
          0.007201304835993905 0.005614427291605051 -1.2469904042997328 0.00208190946925757 -0.007747010689522216 0.0011021978599703441
          -0.00924832255973157 0.011655062675524852 0.018330891254939835 -0.00040092061024532555 -0.00011462448244781154 -0.0014794275980363758
          -0.004366105658254682 0.00048762071326557965 0.032740718353390985 0.0102743808121602 -0.007980424376607287 0.00047091080511307837
          0.03931365924488295 0.010199348770562666 -0.009601740283615046 0.0069080374576475645 -0.012363986809375338 0.022711212295482786
          0.034669576279549696 0.0062917477912489694 -0.029780566673346054 0.0327591206299343 0.05205037668911833 0.0004664503895355221
          -0.013643618252074607 0.018564799492772788 0.03215090659697023 0.0002289645515481109 -0.00025387196397169687 -0.0024846265695313147
          -0.0007199492897138407 0.0002512965466405087 0.00001777851278230748 -0.005199990335093406 -0.0015081771416861345 -0.0006244626606165815
          0.0017134553816205433 -0.00232850678894346 -0.0007412494976377464 -0.0014182254418269036 0.000051551734720045594 -0.0024196995473562133
          0.00013505580693540242 0.006951212361415493 0.012949409755547148 0.0022931961496999165 0.0036150657596698554 0.017090337333148797
          -0.006601930916305565 -0.0028124865509584485 -0.012127437224912607 -0.005160934571421083 -0.005742971608663661 -0.005265275690698901
          -0.0017961565814433866 -0.0034571799156921657 0.00004851620554136016 -0.007030299945362861 -0.00639597316596574 -0.002730218212706248
          -0.001249142348161758 0.0012459414668825053 -0.0023748330674977502 -0.0010070384997890036 -0.0008879950622703858 0.00030971442026195284
          -0.005501805617142308 0.0010531691353002914 0.006085047564951172 -0.005849274832499862 -0.007110098548541319 0.02014164138194885
          0.029186040555369636 0.03154181394763911 0.032376260043328504 -1.2322470558500036 0.0007519018739579053 -1.5397577714011854
          -2.4982458429602006 0.001935325395958143 -2.9466737201558324 -0.996032305484986 0.0036917269534473274 -1.1521558868488464
          -0.0020992895385894064 -0.0016540954265905627 -0.005057997098944812 -0.0027156577910495416 0.008150164430972884 0.01117790375334704
          -0.0019002329932557294 -0.009193086604546707 -0.0019024637382143439 -0.0194046424552754 0.001674159580779211 -0.006029658376509595
          0.00038801872486195904 -0.0029256844345751723 -0.0010923620171520154 -0.0043402147789800005 0.0072253320070899685 0.010603880453146891
          -1.3442158177138022 0.00145322173594864 0.0037976970735105683 -1.6168665713960038 -2.6223242728097897 0.0017242883223296257
          0.0061365300703528775 -3.131931176517865 -1.2622714135065651 0.0027039479786165055 0.004821679295829717 -1.3880200202637571
          -0.0008094153023477935 0.0003413560932048476 0.0002466779636520755 -0.0009031218931454532 0.0022218170293497597 -0.0017153691739196786
          0.015472793338994095 0.019023875445530303 0.013654560613677091 -0.0008229576514835052 -0.003045503039021291 -0.0016173348741838622
          -0.006311218174340216 0.001841448909219584 -0.002667053514348261 -0.0005786346625871186 -0.0002027767056405061 -0.001534375437704183
          -0.000666213110568803 0.021532917680829433 0.01581416395489743 -0.0022039401761439342 -0.007745282249328078 -0.00448405155751317
          -0.010299038269332733 0.02181309252941192 0.018345730127993454 -0.003624132104419253 -0.0007453800236845165 -0.005590829051332125
          -0.0020447782865775643 0.0057904114902394 0.005620046650415267 0.000004610166123186765 -0.003118159596586026 -0.00047763959878360795
          -0.0002781342579667445 -0.005956201963041304 -0.001028729485536936 -0.00012756115229915072 -0.0026343470602320646 -0.00043963274900286897
          0.00005474429601926012 0.0008822444812151969 -0.0036480688093276648 -0.0010467944854364308 0.0013285591243840933 -0.008571064530103922
          0.00575652035387586 0.005138651581348241 0.0010187037763800255 -0.0011180489608640931 -0.0012512635630964608 -1.334753271580761
          -0.0024429713984281953 -0.0014928613102972443 -2.6042073658972265 0.0004897672845434464 0.0011929737715948852 -1.0831456825829244
          -1.252694603894415 -2.4978144775326148 -1.1841081906688098 -0.00004922114939402006 -0.0006407033903982062 -0.004063521809644616
          -0.0021015539541801888 -0.00028833886915602056 -0.0015267424798571516 -0.008099342658797748 -0.004181856536222016 -0.00014844432348490658
          -0.0006922518376176606 -0.004059207243667706 -0.002073982732916771 0.0008443329278035039 0.006427951606744586 -0.0005689478332689957
          0.010160518792701911 0.004266900537765572 0.010925719342115947 -0.002569374619121538 -0.0016293675708204877 -0.005077247876226279
          -0.003282995019303306 -0.0024079278811036317 -0.0015288886198602872 0.004146954988955065 0.001794530448277501 0.007621356371314836
          0.001387326434871175 0.008488803950810864 0.014411418864586564 0.03091635977504703 -0.028508232805297462 0.05061779517042231
          -0.04418110582563295 0.040757804682079346 0.01318969523331015 -0.0030486974082146387 -0.005801806715496599 -0.002764341774576004
          -0.0015104849556124567 -0.0032805742466632815 0.005241190910343585 -0.03171493786543711 0.013069870937923556 -0.06403217776915837
          0.01884232398177843 -0.0009878626436158333 0.01576047154510074 -0.002809603828856422 -0.00599567187388661 0.0006224265294660913
          -0.007352965983412729 -0.01346386390496257 0.0006976404372684569 -0.0013221694539577306 -0.0025279905828581445 -0.0009037755249634016
          -0.0027800249967875335 -0.0040094259458034465 0.001240737542713699 -0.0035815734514252906 -0.009462688992496915 -0.006140477919022613
          -0.0028344618959757744 -0.006619576421771467 -0.005814566453481218 0.02676596246849816 0.04209003647466947 0.03357944737702634
          -1.270915745310249 -2.4064077737947684 -1.0563525467291899 -1.6516972678147819 -3.192324892005743 -1.159345553648855
          -0.00628544357589908 -0.012178749906746111 -0.0058791061464023575 -0.0014081771774511814 -0.002985772768989925 -0.0015418419916750914
          0.0006746993398505374 0.0003301224746103948 0.0010305076836099047 -0.0028971823376009453 -0.005066481922687771 0.0005867447419616312
          0.0009522226855569471 0.0011213737511486244 0.005544802293884654 -0.0021033071960960825 -0.0023470233905262816 0.00613721868737116
          -0.0006617773095989321 -0.0008580871896812781 0.009453744718114443 -0.001829457796209688 -0.0023110111254354138 0.013756387090075428
          -0.0018385832948828451 -0.0007422383129789267 0.019777861725571277 -0.0023093354114367415 0.0003677133449233594 0.02558306652238329
          -0.005442087536247531 -0.007908835999187458 0.014350643536353402 -0.0013524714761756762 -0.0009829652787738397 -0.001135732596303285
          -0.001556259312435554 0.0037319936045512314 0.0038039849648825452 -0.0031978956381487206 -0.005054958163586587 -0.00375631786842634
          -0.002528730215413333 -0.00703139960115888 -0.013572897778815651 -0.041911046705428 -0.003889061282506212 -0.0021972397269632016
          -0.01038513521757789 -0.05355675122857462 0.0010400260912564185 -0.005012164351039794 -0.01027795744202109 -0.007573243808189523
          -0.0026389343350936567 -0.004207456193608072 0.0012910255235665247 -0.017273282733887896 -0.03425840724196361 -0.017977619429782654
          -0.00035124988687584846 -0.0021372228316058894 -0.002551957324623544 -0.005019115148922282 0.005409505180294261 0.001871080608469633
          -0.002398405240825241 -0.0024429678964104085 0.009948402341547258 0.0005840412519422244 0.00025557190841496435 0.009446611169040331
          -0.0007382977904164534 -0.0019188607979430117 0.0125391204261458 0.00008931579963977754 -0.00018754276971932882 0.015276439070310843
          -0.001290980384545115 -0.003061943070454376 0.01431204363619365 -0.0043419828691515505 -0.00919073922225877 0.003253380138681372
          -0.006799577065203621 -0.010690225390591834 -0.0040136083167974235 -0.01370948118225046 -0.00914158402958698 -0.0007678620439501849
          -0.026231280238467214 -0.014912978129731691 -0.0034196586932528916 -0.014612558047317314 -0.007266101053100993 -0.004546681001353914
        </DataArray>
        <DataArray type="Float64" Name="resid_y" format="ascii" RangeMin="-0.06807371899610493" RangeMax="0.037875028224611695">
          -0.001226904416722234 -0.0007934606018866856 -0.0022894154435097666 -0.0017288768337469992 -0.000716381955061525 -0.0007019660373419681
          0.00011330608961717531 -0.00044828849663564084 0.00018958072890155886 -0.001273349005060688 -0.00004935544850885598 -0.000803764889100958
          -0.0037345652697277423 -0.0025336984764324846 -0.007703581485761848 -0.00417081124355477 -0.0025688535696808956 -0.002258261033495995
          0.0033933524217213684 0.0005920526029238593 0.005685380153770958 -0.0005491591592313716 0.0017647787229385647 0.00006869583607899132
          0.00018684830621848447 -0.0004563103673501101 0.0007434105769163202 -0.0011401423714861303 -0.0012583114348792002 -0.0016213228777453015
          0.0002999885328429097 -0.000401748114917333 0.0010362071515419569 -0.0010503810888295995 -0.002852363002238123 -0.0025202314982663565
          0.00015708701072381093 -0.00057265122608402 0.0009219195519588053 -0.0013086320214257818 -0.004987683498614726 -0.0037241960054675838
          -0.00002046075559453131 -0.000697093849460928 0.0009058989827861463 -0.00139901901499484 -0.00744018675331054 -0.005064628781109748
          -0.0015719154804618718 -0.00178148591946925 -0.0011290009786990574 -0.0027587268527420328 -0.012294866460082265 -0.007852343021874375
          -0.000896601904294525 -0.0016978020525399984 -0.000637213983256002 -0.00266865618316392 -0.012024788139203546 -0.006399134366583736
          -0.0012292188344037516 -0.002092726452029993 -0.0008816453777747979 -0.0023110620710946744 -0.005902719392361263 -0.0016753282237984488
          -0.005946851783417681 -0.006497450076915288 -0.001771613336365968 0.0034129549769561715 0.004925089842274508 0.0000770786269695678
          -0.00039723248111697695 -0.00009520861488193644 -0.0015184597169100589 -0.0004740433670452626 -0.0001209936613409679 -0.0030999257673865466
          -0.0004992442614252801 -0.00007648658664288766 -0.004991423913913828 -0.0005520162327120048 0.00009543999454081353 -0.007031134255477578
          -0.002448654809465989 -0.0029095546868831423 -0.010648296892458387 0.00019119306513781797 0.00132128562766759 -0.009275280844290551
          -0.000425018112711964 -0.0015215744998782477 -0.0017152535301948463 -0.007543263871873318 -0.00922342065470786 -0.0012535113274349668
          0.00617694440131078 0.011363620854000049 0.0011805005149200243 0.0016140334895880445 0.0023516767793408406 -0.00004668605087201905
          0.00016325422520116484 0.0013342101825771918 -0.0004636592074856727 0.0004076153817923478 0.0016838970454694235 -0.0016601271454733113
          0.0006039446351556177 0.0020807128589200863 -0.0031092899161457854 0.0004869910564490043 0.002052731193526558 -0.0048213505508016286
          0.0010563869048077767 0.0032358980713657615 -0.005941747237235895 0.0029436403956902835 0.00666971041154607 -0.004829904947024566
          -0.0043909097238517825 -0.006407256351890461 -0.002617089927386851 -0.001670067335876546 0.0012208100756947587 0.0012848713506084936
          0.004481318717098337 0.005028178798247518 0.0002569488307628959 0.00009778351931599011 0.0009507818620283978 0.00010725836185745963
          0.00004397489003626909 0.0011159923120845766 -0.0000909631028179897 0.0005453477132864315 0.0019449892718560458 -0.0007627710631119833
          0.0009074562698227484 0.002581053406404743 -0.0018527648443323885 0.0008136528920431596 0.0025820778905284447 -0.0031345329758865614
          0.0022093447466847715 0.005092074090127907 -0.0032466568352042535 0.006747726200221793 0.0135498180797895 0.0013825077805011965
          -0.0036776405290794845 -0.0033906694863027886 -0.0014596566630467045 0.007351971408799951 0.006860550176021218 0.000004732090436922187
          0.00048721785281787 0.000969122031085734 0.00014052195068281134 -0.00011068107500593685 0.0006288584091006799 0.00023686087647184148
          0.00011483359423622441 0.0011015215490688818 0.000291351133860307 0.0006706192496814534 0.0020551057795269168 -0.000046486212159746465
          0.001179685184443252 0.0029179605868089875 -0.0007785532852079002 0.0013000882457081808 0.0032443919739565674 -0.0016240374734811935
          0.00263247754840526 0.005696819177589296 -0.0011292169475460578 0.0039990029559696105 0.0077730606989981355 0.001228241928669327
          0.0055615193044437905 0.004026386780873303 -0.000488389143048773 0.0011931253725032953 0.0010058757113418915 0.00003878594460188234
          -0.00047899536190917913 0.00033126709133815546 0.00028927511232754166 -0.00038434048364506535 0.00020491618310806287 0.0004416761342503073
          0.00004353482544856152 0.0007623089308617468 0.0005042702068464855 0.000682216809197625 0.0018794621920060484 0.0004016104511411489
          0.0013809752998687752 0.003109759830785902 -0.00002938182056906602 0.0017487049142909938 0.0037695353565841833 -0.0005863419919560214
          0.0029725317810977425 0.006233210578726195 0.0006191766092148304 0.0027030847579372907 0.006109255446425765 0.0029910444227816413
          0.00011455160268702969 -0.0001236767174365161 -0.00028843666791183997 -0.0012862454211064536 0.00016054291324378578 0.000357683226535066
          -0.0007594548754649294 -0.00018123242688190128 0.0004633969665142623 -0.0005091495567899375 -0.00027104493906707217 0.0005161529362189554
          -0.00013679468054992455 0.0003117816428387533 0.000648195061647136 0.0006034765924687324 0.0015315199448155403 0.0005393484226357548
          0.001543770938831443 0.003212868217388677 0.00025735256255352695 0.0023598059530761106 0.004590134810508517 -0.00005386252700818883
          0.003865701014868106 0.007309163276542574 0.0012223956743224462 0.004241073289055319 0.00802199968946854 0.00378110827363487
          -0.0015992931320295 -0.0025607012588597655 -0.001352993616648257 -0.0013237511071249042 -0.0023404003621885217 -0.0006052805131672168
          -0.0009830209063886874 -0.001419045321597201 0.0003865346495180999 -0.0007030620600992389 -0.0008663579283931001 0.000740325350838969
          -0.0003632963185695899 -0.0002929089782543791 0.0006757947635515071 0.0003648386104403941 0.0009536443478038933 0.00036517868439857326
          0.0015954555247719403 0.0031761583967912163 -0.000025812877067932227 0.0032928805195072616 0.0063179455277163135 3.648064228756187e-7
          0.0042405176547058165 0.008316419955241308 0.0007486842835302543 0.0013379840124068676 0.002730788451318744 0.0006357381784634908
          -0.0008071133560773047 -0.001539477103755349 -0.002488086621057317 -0.0005886519704716431 -0.0011273432356189161 -0.0024211331617358667
          -0.0007843157495459052 -0.001064546897185159 -0.0024877995986629653 -0.00042707826535876015 -0.00048814746900566197 -0.0020466381976474712
          0.00017418451054754258 0.0004543634656100082 -0.0009860048525802134 0.0015129220288478962 0.0028722856469589053 0.0022626663782226997