<?xml version="1.0"?>
<VTKFile type="UnstructuredGrid" version="0.1" byte_order="LittleEndian" header_type="UInt32" compressor="vtkZLibDataCompressor">
  <UnstructuredGrid>
    <Piece NumberOfPoints="789" NumberOfCells="452">
      <PointData>
        <DataArray type="Int32" Name="libmesh_node_id" format="ascii" RangeMin="0" RangeMax="1901">
          0 1 2 3 4 5
          6 7 8 9 10 11
          12 13 14 15 16 17
          18 19 20 21 22 23
          24 25 26 27 28 29
          30 31 32 33 34 35
          36 37 38 39 40 41
          42 43 44 45 46 47
          48 49 50 51 52 53
          54 55 56 57 58 59
          60 61 62 63 64 65
          66 67 68 69 70 71
          72 73 74 75 76 77
          78 79 80 81 82 83
          84 85 86 87 88 89
          90 91 92 93 94 95
          96 97 98 99 100 101
          102 103 104 105 106 107
          108 109 110 111 112 113
          114 115 116 117 118 119
          180 181 182 183 184 185
          186 187 188 189 190 191
          192 193 194 195 196 197
          198 199 200 201 202 203
          204 205 206 207 208 209
          210 211 212 213 214 215
          216 217 218 219 220 221
          222 223 224 225 226 227
          228 229 230 231 232 233
          234 235 236 237 238 239
          270 271 272 273 274 275
          276 277 278 279 280 281
          282 283 284 285 286 287
          288 289 290 291 292 293
          294 295 296 297 298 299
          300 301 302 303 304 305
          306 307 308 309 310 311
          312 313 314 315 316 317
          318 319 320 321 322 323
          324 325 326 327 328 329
          360 361 362 363 364 365
          366 367 368 369 370 371
          372 373 374 375 376 377
          378 379 380 381 382 383
          384 385 386 387 388 389
          390 391 392 393 394 395
          396 397 398 399 400 401
          402 403 404 405 406 407
          408 409 410 411 412 413
          414 415 416 417 418 419
          450 451 452 453 454 455
          456 457 458 459 460 461
          462 463 464 465 466 467
          468 469 470 471 472 473
          474 475 476 477 478 479
          480 481 482 483 484 485
          486 487 488 489 490 491
          492 493 494 495 496 497
          498 499 500 501 502 503
          504 505 506 507 508 509
          540 541 542 543 544 545
          546 547 548 549 550 551
          552 553 554 555 556 557
          558 559 560 561 562 563
          564 565 566 567 568 569
          570 571 572 573 574 575
          576 577 578 579 580 581
          582 583 584 585 586 587
          588 589 590 591 592 593
          594 595 596 597 598 599
          630 631 632 633 634 635
          636 637 638 639 640 641
          642 643 644 645 646 647
          648 649 650 651 652 653
          654 655 656 657 658 659
          660 661 662 663 664 665
          666 667 668 669 670 671
          672 673 674 675 676 677
          678 679 680 681 682 683
          684 685 686 687 688 689
          720 721 722 723 724 725
          726 727 728 729 730 731
          732 733 734 735 736 737
          738 739 740 741 742 743
          744 745 746 747 748 749
          750 751 752 753 754 755
          756 757 758 759 760 761
          762 763 764 765 766 767
          768 769 770 771 772 773
          774 775 776 777 778 779
          810 811 812 813 814 815
          816 817 818 819 820 821
          822 823 824 825 826 827
          828 829 830 831 832 833
          834 835 836 837 838 839
          840 841 842 843 844 845
          846 847 848 849 850 851
          852 853 854 855 856 857
          858 859 860 861 862 863
          864 865 866 867 868 869
          870 871 872 873 874 875
          1272 1273 1274 1275 1276 1277
          1326 1327 1328 1353 1354 1355
          1380 1381 1382 1407 1408 1409
          1434 1435 1436 1677 1678 1679
          1704 1705 1706 1731 1732 1733
          1758 1759 1760 1785 1786 1787
          1788 1789 1790 1812 1813 1814
          1815 1816 1817 1839 1840 1841
          1842 1843 1844 1866 1867 1868
          1869 1870 1871 120 121 122
          123 124 125 240 241 242
          330 331 332 420 421 422
          510 511 512 600 601 602
          690 691 692 780 781 782
          783 784 785 876 786 877
          787 878 788 1278 1279 1280
          1281 1282 1283 1329 1330 1331
          1356 1357 1358 1383 1384 1385
          1410 1411 1412 1437 1438 1439
          1461 1462 1463 1464 1465 1466
          1488 1489 1490 1515 1516 1517
          1542 1543 1544 1569 1570 1571
          1596 1597 1598 1623 1624 1625
          1650 1651 1652 1680 1653 1681
          1654 1682 1655 1707 1708 1709
          1734 1735 1736 1761 1762 1763
          1791 1764 1792 1765 1793 1766
          1818 1819 1820 1845 1846 1847
          1872 1873 1874 1893 879 1894
          880 1895 881 1896 1897 1898
          1899 1900 1901
        </DataArray>
        <DataArray type="Float64" Name="resid_x" format="ascii" RangeMin="-16.694400489005933" RangeMax="0.2767511390790567">
          -4.019510686607078 -0.000011348162041180387 -0.000009564882546442277 -8.095345513649526 -8.03903347549193 -0.000012927560449682574
          -0.000032471772642317376 -16.174236889439683 -4.020144813848395 -0.00002436583272658055 -0.00005677715283880502 -8.075932808959386
          -0.000023112883656750682 -8.193267327811983 -0.00008579584085754988 -16.252803332251347 -0.00007948970595972327 -8.04081591178787
          -0.003870986937738685 -8.104258099692695 -0.016377373345990875 -16.184837804916477 -0.026913206359060027 -8.082828472562799
          -0.03770486100207959 -7.8180960442465395 -0.12108815789163119 -15.66494148678358 -0.14292592857386666 -7.881990409149914
          -0.042997953490745644 -7.608699582942167 -0.08102806412262575 -15.284720671874776 -0.03765110556184181 -7.711680472462618
          -0.02318503994482768 -7.474275867236201 -0.05261109094910754 -14.998662236642073 -0.031093961170010953 -7.54968844376152
          -0.008430109847708422 -7.475772389332461 -0.02696614243735418 -14.975673094407211 -0.020557199972258466 -7.512886850577074
          -0.0007792109463968799 -7.589260962556598 -0.007155894647580041 -15.185439436104708 -0.007470421237677716 -7.599854269529895
          0.0008593566061732005 -7.730231541440071 0.0000687689035125949 -15.458502437958977 -0.001168169169117661 -7.7274413298168625
          0.0063958136173232205 -7.8489989385797365 0.012545532175800567 -15.687651769948248 0.006106716387852984 -7.832963350616798
          0.012356806631720119 -7.9243711656879405 0.024241720654869958 -15.831999108902682 0.011704714754738443 -7.897989436578978
          0.011999617689182784 -7.970717074199627 0.023389276873658993 -15.924393036397522 0.01108037197735845 -7.944034289455505
          0.008383607262748782 -8.041303479903705 0.016267162983362837 -16.068091945264992 0.007578984795540755 -8.019096603859293
          0.008000113195464564 -8.185133018839792 0.014932343201435216 -16.355016418816398 0.006513610990626972 -8.162316038133715
          0.004812113417956176 -8.345681159022165 0.008419048913865801 -16.67850728907712 0.0035640496536473165 -8.324368659164497
          -0.0001630199343720662 -8.352455928222483 -0.0003475568172062182 -16.694400489005933 -0.00015206631772368695 -8.332177125490979
          -0.0001124822007527726 -8.312026035183152 -0.00040744886876353803 -16.610025283065333 -0.000326655663489106 -8.287883137502554
          -0.00027801020194839765 -8.27744618494253 -0.0005540942891002487 -16.543314608869427 -0.00032250326616800606 -8.262438175458223
          -0.0003612756878927925 -8.257318249067566 -0.0010192341084946932 -16.518069632744428 -0.0008993964640868768 -8.278414654166905
          -0.00013006244179791793 -0.00023547807610579952 -0.00010668001220626167 -0.00019319538705975248 0.000010835474968828862 0.00007318237091702429
          -0.00011106393797621905 -0.000032495220324335605 0.00009943363682829442 -0.03195481339727557 -0.052786827849549134 -0.005730807422110296
          -0.1876857346663643 -0.30901350390295956 -0.05405275718484592 -0.08743509039067554 -0.15241332704268729 -0.06475398401699906
          -0.05952755793908526 -0.12149502815962787 -0.06464047995396216 -0.025277411562035113 -0.06454520825206878 -0.04229039642733534
          -0.0044910934416577675 -0.01957721037696336 -0.01694546733825053 0.0019314108469306035 0.00010233849436680487 -0.002283705615203413
          0.014198854948156647 0.02703970910765774 0.012930644808227143 0.025241035603348116 0.048348879856201066 0.022939064481595217
          0.024451683191836437 0.04596054755472245 0.021100099758339486 0.0181762398297165 0.0329733775803982 0.014317913413252725
          0.01738674308553012 0.03003902404221659 0.011975081176083258 0.010712445020166328 0.017554123660713294 0.006730676525437573
          0.0005783251601307882 0.00048447707175025556 0.00037865030958084134 0.0007444683780821748 0.00044150083293814646 -0.0000972400017067443
          0.0002223615558634151 -0.00036904506259904934 -0.0004972140103758349 -0.001017631925961382 -0.0022605261766619478 -0.000778814110902637
          -0.00002024384253562772 -0.000027887883768507038 -0.00003529813180325192 -0.00003429697627144179 0.0000035006570611173515 0.000024618263240405724
          -0.0000078616749510374 -0.00003596751765666539 -0.000007992775371334915 -0.0000028122247321960003 -0.00006504709413412968 -0.00006258561518546202
          -0.04683977137000639 -0.0790448411022604 -0.03274896432831653 -0.12634674203040142 -0.22181740393567706 -0.09358685895809415
          -0.11887833103216927 -0.21103513705361632 -0.09460921745755124 -0.0618757907337959 -0.12337888091057803 -0.06508543448599058
          -0.018123278626050787 -0.046022413673935336 -0.030319372514183485 0.0008946538893885858 -0.003540491654347999 -0.005091627940720045
          0.02192121155729021 0.040751571867538416 0.01855873616594028 0.03575888505685976 0.0670985543012832 0.03068627059022555
          0.0337537229735041 0.06129177617006354 0.02652148458530501 0.025917176531281783 0.04367185028106846 0.016634862886435897
          0.025073684707915156 0.03841089675398379 0.012161811409491463 0.015199692220029704 0.021834456948630176 0.005792636965268549
          0.0004332296395377355 -0.00016061141554857272 4.944370939341525e-7 0.000656855958072633 -0.00002337110635419748 -0.0006964597782985749
          0.000020805610122742735 -0.0008735048149084434 -0.0014696719314892803 -0.0011152315689777481 -0.0025321500406629838 -0.0012166844048744352
          7.702506263917996e-7 -8.920589067429319e-8 -0.00003469915456966177 -0.00004019757774464949 0.00000466067353022126 0.000039952094756934287
          0.00001280754855770283 -0.00006687340483502169 -0.000007179444749816355 0.000021016178589405854 -0.00007001699948361306 -0.000025832709862783076
          -0.09779293756865748 -0.21685327508928243 -0.11911093412212637 -0.1630261785688667 -0.38013315741004483 -0.20527560640208087
          -0.18168809561665444 -0.3270482102344765 -0.13566232522387667 -0.12312121148875521 -0.20811655082676372 -0.08757816804823726
          -0.04677833992317071 -0.08830677947755605 -0.04400168232116952 0.000456474238656579 -0.008983209437487094 -0.007903716129889826
          0.030657266857338605 0.05394995212721154 0.023128824060763442 0.043766276422189776 0.07947337094196305 0.03435216284755871
          0.03985840778944816 0.06885725651333008 0.02717332434313935 0.031109191451760942 0.05083557014298146 0.02759020811775681
          0.02979759027878348 0.05286223507971055 0.06372200049045773 0.030908207727204484 0.030478663682320217 0.0019747654698099026
          0.004311703865551131 0.002890250458611021 -0.00017216995696145432 0.0005195378720870281 0.0006625528095414168 -0.0006483652440580912
          -0.00028305325174482476 -0.00036129118565675356 -0.00035752580269754475 -0.0001987810453671912 0.0002262052408044113 -0.0006192314950403954
          0.000024547274253272633 0.000029373140196575775 -0.000001748781361499141 -0.000023443832849245894 0.00006310041352941553 0.0000868810554068844
          0.000012513234230127068 -0.00007853759650533476 0.000024915023026039762 0.000031985096523357015 -0.00007378691805737247 0.000009976428935409842
          -0.021981939913576554 -0.032795007348928706 -0.011396505799282863 -0.24159948012014532 -0.4404917528292245 -0.2036133944215841
          -0.3582331350873691 -0.7264006571760291 -0.3614886860828044 -0.2044646719576919 -0.37984398292214294 -0.16152149177209685
          -0.09232277428605862 -0.15746651225582786 -0.06433796964935334 -0.012670334936707217 -0.01930153259688483 -0.00932009399514655
          0.0329939763598639 0.059282157731774365 0.024267449052553847 0.04574845311878395 0.07990456079691466 0.032028019476976866
          0.03904915268624132 0.06297986350503715 0.021227994905956393 0.02832457219430795 0.03208562133410231 -0.010286855150970275
          0.022875349251711974 -0.0010700727345671623 -0.07433235882493339 0.021728961481210618 0.0086364286941496 -0.015437621621508413
          0.00335207743374788 0.0016138226376813947 -0.0010091068602395836 -0.00011773738960929592 0.0014094843255447742 0.0007065488669262265
          -0.0012009666467323044 -0.0014107457882674979 0.0019664679608348834 0.0009244885039194628 -0.00003539024257293022 -0.00012132961359778704
          0.00006752104760998634 0.00007157251908651574 0.000040318843088194 6.154172353944887e-7 0.00010476781047152883 0.0001348490744730313
          0.000017123121247131223 -0.00009040427387585481 0.000045353834722483555 0.00004290710773702244 -0.00007883232098215842 0.000033763738835901336
          0.00007390733326584353 -0.00003760061541058235 0.000033917367636249196 0.00009001285913434742 -0.000024235915534909225 -0.00004153314873089897
          -0.09145846280747527 -0.19137811476403854 -0.10308080175341505 -0.40105639245543134 -0.8251374000071126 -0.42366647491148424
          -0.1724866146886428 -0.32829287026200804 -0.14690071397204152 -0.0242836418698551 -0.040134531091476244 -0.01486051670031907
          0.028918333682719233 0.05249285533130754 0.021694133351904732 0.03637159285422831 0.062354150603453284 0.023204343099186175
          0.025391899178176303 0.03799444330235202 0.009095568169875445 0.008486924152040665 0.0001079600404692016 -0.013626617048949186
          -0.009092550702233027 -0.041978829065083545 -0.041566936783744346 -0.02695066591233175 -0.05274055110536935 -0.031587695300206775
          -0.0037843261347507706 -0.005228230160874148 -0.002557448847332111 -0.00038623943331206334 0.0008259030981276894 0.0007230404994293949
          -0.001652903747847212 -0.002920382552271228 -0.001450622311577554 0.001352305284068045 -0.002901157850162761 -0.003440445735544806
          0.00010947862863286417 0.00012538258793881596 0.000048633641883011336 0.000016763539679942596 0.000142264984561713 0.00018069390805663943
          0.00003955369792318919 -0.00009341507506555047 0.000058931034309317454 0.00006059433388028168 -0.00007853241671273992 0.000044194707573552705
          0.0001054503125912376 -0.00003487526848822142 0.000053619287204043076 0.00012389502036835864 -0.000012314165897642226 0.00005458941138236639
          0.00011740911718671754 -0.00002238276671207018 0.000013927078139630567 -0.044601447753208845 -0.09196646134474928 -0.04773857226220013
          -0.2479469841765809 -0.5045965797487195 -0.25308689187320876 -0.048365903412245004 -0.08147303504534431 -0.031121866905050144
          0.008866994134190787 0.023513599672872587 0.012809797059039951 0.01104316717483611 0.02373142528303518 0.009316695039688572
          -0.007366768625755693 -0.011827040648876075 -0.008434746462212317 -0.0383047038008093 -0.06770750281459037 -0.035866579829622935
          -0.07946717333749742 -0.1387053724409757 -0.0654266715052838 -0.06824258526954097 -0.09767871669773598 -0.02425049342895491
          -0.0014338922769905338 -0.0006998658232442168 -0.0036704817891344277 0.0005036340608857159 0.0013197864156735406 -0.0013313548096860472
          -0.00038043523398556545 0.0008709218017939335 -0.00462563297119889 0.0018246771609478074 0.0009439884959459022 -0.006150745856111861
          0.0001468761422143139 0.035979522383193796 0.00008585414377559886 0.009673910936862207 0.000244146678716195 0.00023746770045995902
          0.022795699818976445 0.0061698264241014655 0.00006942613298832612 0.00010077132588293125 -0.00006458550968435617 0.00004235782256056808
          0.00010733976150412161 -0.00003133006665922977 0.00008602664844481467 0.0001601913001048061 -0.000010481794227246155 0.00010277153654669746
          0.0001363625016574943 -0.000016914399108891587 0.00010378268689059666 0.00012319806289706747 -0.000017225891495442625 0.00005053972348090241
          -0.03441627108292522 -0.06800976844444939 -0.031804109131554625 -0.05989062387875155 -0.11868220210143976 -0.052365927661490286
          -0.022568274340827976 -0.043624889777289955 -0.015857122772365617 -0.02397664064387639 -0.04841370859880456 -0.019826944918058587
          -0.050658680954666746 -0.10702812667758543 -0.053264456333973254 -0.0990506996780951 -0.1982424325017229 -0.0937340597863634
          -0.13606670495347473 -0.2611569061217027 -0.10830608739276215 -0.028746826342523235 -0.04575734353258998 -0.014197560430427636
          0.0005884934480473447 0.0006857510765803099 -0.004337079390736243 0.0007929453953092747 0.0013629039902829376 -0.0035412659702203086
          0.00017755537564578816 0.0006896712058832577 -0.005598107296272303 0.001328507997458317 0.0017713830605337044 -0.007548634164572299
          0.02095975922577331 0.051607399976042245 0.049318037261887326 0.17339327227055357 0.018970164407654977 0.09294202832608267
          0.020047377685798118 0.08103498816641697 0.04544626383711048 0.00038199258828885974 0.00010517338679250088 0.0005579127237727022
          0.00027251939322781027 0.00009871703685249145 0.0004927285572202678 0.00025174780373760086 0.00012097646772435411 0.0005543352300243498
          -0.0003862271184269517 -0.0013156575848034535 0.00006453600352607225 -0.0007391976859700833 -0.0020522795704316366 -0.0003104525964783278
          -0.023130483766839127 -0.05295536116342525 -0.0353398687669042 -0.09911000756486743 -0.21125975848110246 -0.11738047679063435
          -0.15618677167839845 -0.31800989288904047 -0.16201128504714823 -0.2229430977657394 -0.4493810470569475 -0.2270050655468192
          -0.3101833210983642 -0.6208383884547892 -0.3118705102839652 -0.33431481279042696 -0.6375914986886242 -0.2996483804345802
          -0.0999122038336333 -0.1813645539715516 -0.08140587790419129 0.0021451962450438344 0.000632167625888691 -0.01046780382993795
          0.002445362538197493 0.0005066294157973772 -0.004606432444229647 0.0007160488578175084 0.006363241418432253 0.0018505708024525447
          -0.00012393635742080633 -0.0016678802888678845 -0.006607767193676395 -0.0024096547494711906 -0.008665960496585967 -0.014822389504782763
          0.0019678283235586846 0.00411819094925292 -0.012155467451188784 -0.006056839583239437 -0.021453636793603792 -0.0123186478585251
          -0.07923078852565624 -0.021824244235366663 -0.1773028432385031 -0.049380212028740544 -0.08564429920418881 -0.019041778632686412
          -0.023828560744836302 -0.04265476578822991 -0.012136220654769048 0.001494766528498559 0.0019253448883906898 0.0012412441572218214
          0.0011493853818320687 0.0013808905007914873 0.0009672587949856037 0.0007935638344136464 0.0007061492074607045 0.0008231985450786183
          0.000268792257607231 -0.0005300818334008639 0.0001502042138579185 -0.0024044515576990833 -0.0015256801616705395 -0.009446817897829085
          0.008251818926838794 0.002764396000844549 -0.012224652574650996 -0.00015943403652096677 0.006843689038697143 -0.002391301349090824
          -0.003903867538660233 -0.0039269789247118325 -0.011096243220690472 -0.00044983044563240426 0.0020805616753243328 -0.007181250943057549
          -0.002132287370268937 -0.0032363259569141434 -0.01104801094435448 0.013754053835506319 0.0006557411721290762 -0.012386196427934593
          -0.004248614671381379 -0.012138344570575832 -0.014553322591940976 0.014814465894381623 -0.004752367066157781 -0.016106778802361887
          -0.0008102791514290608 -0.004498264081005399 -0.008727037454319131 0.0043986538865117275 0.0037018664378756228 -0.005572915172920023
          -0.0008624066002260733 0.00020905564404394283 0.0008879039602218697 0.000625063757365929 -8.254786693055543 -0.0005107826488810474
          -16.553135729040825 -0.0018269972820643687 -8.364530750004498 0.0006450766536421071 -0.0011834367691800907 0.0000636178318540459
          -0.0013994919960289565 -0.006127446123278091 0.0025379520166319836 0.00013473966529264914 0.0031866835924159176 -0.006758041709926665
          0.002400577804706927 0.00023560235970698784 -0.009878081765049451 0.0052205067769603986 -0.003517618184059046 -0.007055240011780484
          0.0019025905373233343 -0.0030196593735141164 -0.00694921979789509 -0.003166945789823572 -0.010384141070575836 -0.009091900982668655
          0.0024125887235868504 -0.020043473220631824 -0.007353239571328274 0.006564912982190307 0.0036173168134183697 0.011193546950591937
          -0.005578461665802337 -0.008851755162287755 0.00004807197255551898 0.11082003435883969 0.029469743737856824 0.2767511390790567
          0.03361308184151568 0.10514658453783099 0.008397964167444538 0.13418010471939468 0.26061635920470394 0.1190411101035469
          0.018949059209727892 0.038361422536166145 0.02014070482536745 0.0010106246617276327 0.001927033468163586 0.0017791833520810485
          0.001033420065283508 0.0017137629145302924 0.0014655593336776462 0.0012372344349884656 0.002433009110085038 0.0012710082755429397
          0.0015578004503780107 0.002267178398451364 0.0009243305947732594 0.018903860490830482 0.05368949714059035 0.03273826409165981
          -0.04808542823409567 -0.10543671752005324 -0.059110463860534423 -0.24040993353361628 -0.4989135961552371 -0.2635160703549406
          -0.4505938134470391 -0.9086648373991562 -0.46355803541544205 -0.4805249473559261 -0.9382448350736858 -0.46192553114607193
          -0.2723516563944379 -0.49059082936270215 -0.22180711974083245 -0.027480160273697152 -0.048791891512586005 -0.018163419595921937
          -0.01206494766757249 -0.012937101070889412 -0.001846690365070458 -0.0019293368449133652 -0.006769105287932398 0.00019880836105201638
          -0.01263531702615417 -0.002683527975467115 -0.004468658839237527 0.003780274478803136 0.0034560727389809642 -0.006787155052753846
          0.002151836997407841 -0.00682620010881152 -0.019838502967523652 0.00009813277572323642 -0.0014720625956368139 -0.010998439837416107
          -0.004077918868498287 -0.00131226643413207 -0.009625946301941468 -0.002824543472669916 -0.012047297071571705 -0.01073218810800558
          0.00003781356568843819 -0.0034549116380233613 -0.008079187710666957 0.0036006583582217644 0.004418236687172339 -0.0004241392526651566
          -0.0004669713941130027 -0.003728758839962154 -0.0055893119824403925 0.01457049046269443 0.008088413865199762 0.017469825158797914
          0.013850917238540816 0.0008198209557321867 -0.0057012173926240806 -0.002980873755334734 -0.0070437388721300564 0.0005280230244704143
          -0.008999244239285886 -0.013832612453439808 -0.0027559044326119775
        </DataArray>
        <DataArray type="Float64" Name="resid_y" format="ascii" RangeMin="-0.30554382287596593" RangeMax="0.23661767892250407">
          0.004866294282726135 0.01074803422423413 -0.00003418797152415559 -0.0001857656912211056 0.007765022757976211 0.01873177049701204
          -0.00006801744820106835 -0.0005166257700287488 0.0008056779620151546 0.01210721698936776 -0.00003949833377483655 -0.0003198107413321452
          -0.00009038271699906252 -0.000339753978398475 -0.00004694802310278509 -0.0008538297943414264 -0.000049421277458763443 -0.0005359375411267062
          -0.020330172092181704 -0.010985904823335193 -0.036463682271711685 -0.021579097422030638 -0.011397168373452199 -0.010386535232038863
          -0.045701828760731644 -0.02413900746491257 -0.08913728143546275 -0.046638431141485394 -0.047169093437079423 -0.02213559907588486
          -0.02748416365205479 -0.013857302831605653 -0.05551148359736567 -0.02758539889249683 -0.028726389712049084 -0.013795401609657641
          -0.015683746851674417 -0.007845140018320387 -0.03280058012023606 -0.017582005562694396 -0.017698651402694155 -0.010188544605255895
          0.0034950949611322613 0.0013692395162773832 0.004879253632335295 0.0011719613079514413 0.0005794981688112336 -0.000551264683618026
          0.014377253750552335 0.006527615380565878 0.027632496157752984 0.01194362379319168 0.012734865360460645 0.005168666264637328
          0.01417436570068694 0.006360680435309046 0.027719896970288933 0.01176966025772945 0.013075250312275508 0.005203638444982263
          0.008672591958251291 0.003742118394467371 0.016811139944249362 0.006468940742226426 0.007627264307625205 0.0024920222882128112
          0.004343277912924798 0.0014287731054552014 0.008563907266766257 0.0019893549923002962 0.0038114281210098883 0.0003698381092405306
          0.006174260123128085 0.0020802744747498436 0.012687345451684099 0.003481846705495041 0.0062300667171725985 0.0012851474049197509
          0.015341027751605937 0.006580097504936773 0.031169054167737433 0.012452218340764855 0.015541290525798696 0.0057428266984185725
          0.02796077983493757 0.01289519168028019 0.056255739700235 0.02484815197845971 0.027947743275567344 0.011796771460789786
          0.016885239045966546 0.006787124145295451 0.03606988000111758 0.013560480665473142 0.01925472667168359 0.006857354486987853
          -0.000813673705916668 -0.001735311151544001 -0.0011282991569758433 -0.0045446310815171476 -0.0008530861872806631 -0.003094277821906837
          -0.001165845856928336 -0.0019649892232972144 -0.0018037453806880772 -0.005020429036436198 -0.0011336895810572546 -0.0032880792716243265
          -0.0011694874452326948 -0.0019361030705773302 -0.001857615878552616 -0.004926808906687737 -0.0011631454653682517 -0.003183654539958357
          -0.0013028971622708121 -0.001624586284101906 -0.001600246616845262 -0.0038169682715003296 -0.0006168546577323374 -0.0023029707089029586
          0.01004882615018951 -0.00016678382996542125 0.017744317205189437 -0.00020700612465698355 0.01155408703753933 -0.000159343597231746
          -0.0003279235568477636 -0.00039158939823713025 -0.00028910240872946635 -0.009886541735386608 -0.016181557754804652 -0.0021331042462341427
          -0.04626363528792078 -0.09121143906375836 -0.049135049358835114 -0.03269657706050197 -0.06458970305903323 -0.03220980556614592
          -0.019562456642751365 -0.03789533603864359 -0.01907131106505584 -0.000510275521954151 -0.0027805815675235462 -0.003486902704488197
          0.012275102614351968 0.023100486388892835 0.00980176707654802 0.012189007804367248 0.023756449886022865 0.010619952927277788
          0.005936321222322065 0.011827027297537514 0.0049776896934118076 0.002309417461413721 0.005143556005080402 0.0020391834622061553
          0.005044546718441706 0.01107710148240034 0.005289741992941341 0.013941241139700772 0.02908769618104579 0.014373452857980633
          0.025489709301317574 0.05222436958904521 0.02581224332800104 0.01649906174876931 0.03561082848572645 0.018369255154638605
          -0.0034855651375478667 -0.005556299740197248 -0.0031878923847201666 -0.003738176121135547 -0.005999510540545204 -0.003424793858378034
          -0.0033828875084886967 -0.005296422970317362 -0.0030030140828546017 -0.0031064302181521564 -0.004621781435390156 -0.002278989418577272
          0.0074627776623266435 -0.00010231633805034626 0.012567876900040372 -0.00006988392874273872 0.0015666965233886755 -0.00011763580264746026
          -0.00016080947580450998 -0.000051085550366786084 -0.00017377655564353644 -0.00017730790864925114 -0.000040916450898993706 -0.00021096378489822085
          -0.0412587370637586 -0.08279827486207926 -0.041752305125951794 -0.03344804535521433 -0.06347283226113265 -0.029284676843856897
          -0.022797003857632014 -0.042059853124086374 -0.02006463818911217 -0.005197777511876167 -0.010528998884031665 -0.0067581298201282655
          0.011082443519369926 0.02018803149876353 0.00767425207498381 0.011703086120384398 0.02218054774539291 0.009170642417811386
          0.0048594713473953735 0.009710891629684935 0.0036924665191959034 0.002753681009981697 0.006276243722316291 0.0025052287479693444
          0.007118059020635066 0.015423336478620986 0.0072711124169418315 0.01610907690911287 0.033676924870713165 0.01649029939553756
          0.02660843187424499 0.054935748205932375 0.027092348702870098 0.021671325410288857 0.04460935483297035 0.02152088378886713
          -0.0015274306566333065 -0.0014944415017626514 -0.0014743972868898406 -0.0015835113434788314 -0.001564427649013522 -0.00157021159567226
          -0.0013177993652338932 -0.0007413267880227145 -0.001094138524969224 -0.0020261005977265933 -0.0024637419806506147 -0.0008700367946133398
          0.005430902384387797 -0.00008940025638356358 0.009341228142411884 -0.00005700025015710486 0.0008881089288403157 -0.0001078494777656952
          -0.00014808260664135597 -0.0000518442368081214 -0.00018469940317779017 -0.0001762649517468469 -0.0000443195447986551 -0.00024400120528753066
          -0.023352462407840134 -0.04574851095573862 -0.02301355808976829 -0.03071023619732325 -0.06145799704853851 -0.030679724503456258
          -0.026324536459754622 -0.05038885697651262 -0.023904463800324124 -0.014082030787010612 -0.024893862416347886 -0.011879961761975134
          0.005653561659172628 0.010853092787869901 0.0034363864314825993 0.008139217738098437 0.015366313912443377 0.005561287450780782